       N       E                     dE             d eps       ncg     rms          rms(c)
DAV:   1     0.168486471678E+04    0.16849E+04   -0.58019E+04  6048   0.156E+03
DAV:   2     0.162139310260E+03   -0.15227E+04   -0.14207E+04  6072   0.451E+02
DAV:   3    -0.179470445064E+03   -0.34161E+03   -0.32713E+03  7416   0.195E+02
DAV:   4    -0.198658103185E+03   -0.19188E+02   -0.19033E+02  7720   0.509E+01
DAV:   5    -0.199859831775E+03   -0.12017E+01   -0.11995E+01 11208   0.115E+01    0.675E+01
DAV:   6    -0.157883999156E+03    0.41976E+02   -0.23061E+02  8672   0.570E+01    0.204E+01
DAV:   7    -0.160650999182E+03   -0.27670E+01   -0.44931E+01  8600   0.265E+01    0.196E+01
DAV:   8    -0.159919722716E+03    0.73128E+00   -0.65558E+00  8584   0.117E+01    0.227E+00
DAV:   9    -0.159926605527E+03   -0.68828E-02   -0.90650E-01  8848   0.357E+00    0.947E-01
DAV:  10    -0.159917552198E+03    0.90533E-02   -0.10265E-01  9960   0.122E+00    0.649E-01
DAV:  11    -0.159916425907E+03    0.11263E-02   -0.33599E-02  8260   0.867E-01    0.309E-01
DAV:  12    -0.159917407626E+03   -0.98172E-03   -0.42477E-03  8712   0.215E-01    0.150E-01
DAV:  13    -0.159917681233E+03   -0.27361E-03   -0.73214E-04  6656   0.112E-01    0.469E-02
DAV:  14    -0.159917718384E+03   -0.37151E-04   -0.81934E-05  3544   0.508E-02
   1 F= -.15991772E+03 E0= -.15991772E+03  d E =-.159918E+03  mag=     0.0020
       N       E                     dE             d eps       ncg     rms          rms(c)
DAV:   1    -0.162213394610E+03   -0.22957E+01   -0.59315E+01  6052   0.350E+01    0.117E+01
DAV:   2    -0.160780866268E+03    0.14325E+01   -0.12379E+01  8352   0.172E+01    0.113E+01
DAV:   3    -0.160039903888E+03    0.74096E+00   -0.26587E+00  7908   0.980E+00    0.352E+00
DAV:   4    -0.159908822866E+03    0.13108E+00   -0.51841E-01  8460   0.327E+00    0.146E+00
DAV:   5    -0.159917693751E+03   -0.88709E-02   -0.12402E-01 10912   0.929E-01    0.666E-01
DAV:   6    -0.159918575591E+03   -0.88184E-03   -0.17324E-02  8456   0.662E-01    0.406E-01
DAV:   7    -0.159919180184E+03   -0.60459E-03   -0.48070E-03  9288   0.236E-01    0.105E-01
DAV:   8    -0.159919193352E+03   -0.13168E-04   -0.70921E-04  7736   0.897E-02
   2 F= -.15991919E+03 E0= -.15991919E+03  d E =-.147497E-02  mag=     0.0000
       N       E                     dE             d eps       ncg     rms          rms(c)
DAV:   1    -0.160612965469E+03   -0.69379E+00   -0.15160E+01  6060   0.175E+01    0.601E+00
DAV:   2    -0.160242521986E+03    0.37044E+00   -0.31175E+00  8452   0.943E+00    0.540E+00
DAV:   3    -0.160042219885E+03    0.20030E+00   -0.46904E-01  7936   0.412E+00    0.179E+00
DAV:   4    -0.160014550461E+03    0.27669E-01   -0.11642E-01  9172   0.153E+00    0.435E-01
DAV:   5    -0.160015016528E+03   -0.46607E-03   -0.17310E-02  9928   0.478E-01    0.306E-01
DAV:   6    -0.160016042970E+03   -0.10264E-02   -0.26975E-03  9828   0.185E-01    0.131E-01
DAV:   7    -0.160016309614E+03   -0.26664E-03   -0.72101E-04  6896   0.109E-01    0.253E-02
DAV:   8    -0.160016342888E+03   -0.33273E-04   -0.88540E-05  3420   0.371E-02
   3 F= -.16001634E+03 E0= -.16001634E+03  d E =-.986245E-01  mag=    -0.0000
       N       E                     dE             d eps       ncg     rms          rms(c)
DAV:   1    -0.160016353779E+03   -0.44165E-04   -0.20422E-04  3396   0.673E-02    0.244E-02
DAV:   2    -0.160016350097E+03    0.36818E-05   -0.42067E-05  3384   0.365E-02
   4 F= -.16001635E+03 E0= -.16001635E+03  d E =-.986317E-01  mag=    -0.0000
       N       E                     dE             d eps       ncg     rms          rms(c)
DAV:   1    -0.160016586329E+03   -0.23255E-03   -0.67842E-03  6172   0.372E-01    0.132E-01
DAV:   2    -0.160016408404E+03    0.17792E-03   -0.15944E-03  8484   0.204E-01    0.125E-01
DAV:   3    -0.160016307582E+03    0.10082E-03   -0.21386E-04  4660   0.957E-02    0.375E-02
DAV:   4    -0.160016292639E+03    0.14943E-04   -0.80539E-05  3292   0.410E-02
   5 F= -.16001629E+03 E0= -.16001629E+03  d E =-.985743E-01  mag=     0.0000
       N       E                     dE             d eps       ncg     rms          rms(c)
DAV:   1    -0.160016543943E+03   -0.23636E-03   -0.53318E-03  6144   0.327E-01    0.108E-01
DAV:   2    -0.160016424327E+03    0.11962E-03   -0.11020E-03  8068   0.171E-01    0.998E-02
DAV:   3    -0.160016354016E+03    0.70311E-04   -0.14677E-04  4376   0.802E-02
   6 F= -.16001635E+03 E0= -.16001635E+03  d E =-.986356E-01  mag=    -0.0000
       N       E                     dE             d eps       ncg     rms          rms(c)
DAV:   1    -0.160016356899E+03    0.67428E-04   -0.14107E-04  3260   0.466E-02    0.325E-02
DAV:   2    -0.160016350103E+03    0.67959E-05   -0.22810E-05  3252   0.261E-02
   7 F= -.16001635E+03 E0= -.16001635E+03  d E =-.986317E-01  mag=    -0.0000
       N       E                     dE             d eps       ncg     rms          rms(c)
DAV:   1    -0.160016349757E+03    0.71420E-05   -0.10740E-05  3172   0.226E-02    0.682E-03
DAV:   2    -0.160016350156E+03   -0.39877E-06   -0.36602E-06  3144   0.100E-02
   8 F= -.16001635E+03 E0= -.16001635E+03  d E =-.986318E-01  mag=    -0.0000
       N       E                     dE             d eps       ncg     rms          rms(c)
DAV:   1    -0.160016350597E+03   -0.83985E-06   -0.23093E-06  3144   0.688E-03    0.256E-03
DAV:   2    -0.160016351304E+03   -0.70706E-06   -0.17801E-06  3144   0.412E-03
   9 F= -.16001635E+03 E0= -.16001635E+03  d E =-.986329E-01  mag=    -0.0000
       N       E                     dE             d eps       ncg     rms          rms(c)
DAV:   1    -0.160016351577E+03   -0.98032E-06   -0.10916E-06  3144   0.346E-03    0.150E-03
DAV:   2    -0.160016352101E+03   -0.52397E-06   -0.84153E-07  3144   0.262E-03
  10 F= -.16001635E+03 E0= -.16001635E+03  d E =-.986337E-01  mag=    -0.0000
       N       E                     dE             d eps       ncg     rms          rms(c)
DAV:   1    -0.160016352032E+03   -0.45421E-06   -0.58322E-07  3144   0.235E-03    0.185E-03
DAV:   2    -0.160016352482E+03   -0.45071E-06   -0.46550E-07  3144   0.179E-03
  11 F= -.16001635E+03 E0= -.16001635E+03  d E =-.986341E-01  mag=     0.0000
       N       E                     dE             d eps       ncg     rms          rms(c)
DAV:   1    -0.160016352927E+03   -0.89512E-06   -0.33544E-07  3144   0.201E-03    0.642E-04
DAV:   2    -0.160016353073E+03   -0.14586E-06   -0.23480E-07  3144   0.135E-03
  12 F= -.16001635E+03 E0= -.16001635E+03  d E =-.986347E-01  mag=    -0.0000
       N       E                     dE             d eps       ncg     rms          rms(c)
DAV:   1    -0.160016353149E+03   -0.22216E-06   -0.15375E-07  3144   0.127E-03    0.535E-04
DAV:   2    -0.160016353250E+03   -0.10082E-06   -0.10312E-07  3144   0.857E-04
  13 F= -.16001635E+03 E0= -.16001635E+03  d E =-.986349E-01  mag=     0.0000
       N       E                     dE             d eps       ncg     rms          rms(c)
DAV:   1    -0.160016353318E+03   -0.16939E-06   -0.69756E-08  3144   0.870E-04    0.369E-04
DAV:   2    -0.160016353376E+03   -0.57235E-07   -0.46018E-08  3144   0.589E-04
  14 F= -.16001635E+03 E0= -.16001635E+03  d E =-.986350E-01  mag=     0.0000
       N       E                     dE             d eps       ncg     rms          rms(c)
DAV:   1    -0.160016353408E+03   -0.89514E-07   -0.31347E-08  3144   0.583E-04    0.274E-04
DAV:   2    -0.160016353445E+03   -0.37015E-07   -0.20619E-08  3132   0.401E-04
  15 F= -.16001635E+03 E0= -.16001635E+03  d E =-.986351E-01  mag=    -0.0000
       N       E                     dE             d eps       ncg     rms          rms(c)
DAV:   1    -0.160016353467E+03   -0.59472E-07   -0.14037E-08  3132   0.394E-04    0.189E-04
DAV:   2    -0.160016353490E+03   -0.23132E-07   -0.91954E-09  3132   0.275E-04
  16 F= -.16001635E+03 E0= -.16001635E+03  d E =-.986351E-01  mag=     0.0000
       N       E                     dE             d eps       ncg     rms          rms(c)
DAV:   1    -0.160498698384E+03   -0.48234E+00   -0.14835E+01  6060   0.175E+01    0.595E+00
DAV:   2    -0.160123135847E+03    0.37556E+00   -0.30417E+00  8536   0.926E+00    0.545E+00
DAV:   3    -0.159943810350E+03    0.17933E+00   -0.44078E-01  7952   0.395E+00    0.190E+00
DAV:   4    -0.159916034445E+03    0.27776E-01   -0.11591E-01  9216   0.158E+00    0.440E-01
DAV:   5    -0.159916558057E+03   -0.52361E-03   -0.16845E-02  9808   0.483E-01    0.317E-01
DAV:   6    -0.159917603191E+03   -0.10451E-02   -0.28300E-03 10044   0.196E-01    0.122E-01
DAV:   7    -0.159917803879E+03   -0.20069E-03   -0.61935E-04  6256   0.110E-01    0.242E-02
DAV:   8    -0.159917834157E+03   -0.30278E-04   -0.10141E-04  3404   0.407E-02
  17 F= -.15991783E+03 E0= -.15991783E+03  d E =-.115773E-03  mag=     0.0000
