 vasp.6.4.1 05Apr23 (build Jul 10 2023 10:47:07) complex                        
  
 executed on             LinuxIFC date 2025.02.17  15:17:42
 running    4 mpi-ranks, on    1 nodes
 distrk:  each k-point on    4 cores,    1 groups
 distr:  one band on NCORE=   1 cores,    4 groups


--------------------------------------------------------------------------------------------------------


 INCAR:
   ALGO = Normal
   EDIFF = 0.0001
   EDIFFG = -.001
   ENCUT = 520.0
   IBRION = 2
   ISIF = 3
   ISMEAR = 0
   ISPIN = 2
   LASPH = True
   LMAXMIX = 4
   LORBIT = 11
   LREAL = Auto
   LWAVE = False
   MAGMOM = 20*0.6
   NELM = 500
   NSW = 99
   PREC = Accurate
   SIGMA = 0.05

 POTCAR:    PAW_PBE Ca_sv 06Sep2000               
 POTCAR:    PAW_PBE Ti 08Apr2002                  
 POTCAR:    PAW_PBE O 08Apr2002                   
 POTCAR:    PAW_PBE Ca_sv 06Sep2000               
   SHA256 =  a47365830e737f14e0e6c5cf1ed81b94e081eecf0a33df105380881bc9da05d5 Ca_sv/POTCAR          
   COPYR  = (c) Copyright 06Sep2000 Georg Kresse                                                    
   COPYR  = This file is part of the software VASP. Any use, copying, and all other rights are regul
   COPYR  = If you do not have a valid VASP license, you may not use, copy or distribute this file. 
   VRHFIN =Ca: 3s3p4s                                                                               
   LEXCH  = PE                                                                                      
   EATOM  =  1006.0909 eV,   73.9456 Ry                                                             
                                                                                                    
   TITEL  = PAW_PBE Ca_sv 06Sep2000                                                                 
   LULTRA =        F    use ultrasoft PP ?                                                          
   IUNSCR =        1    unscreen: 0-lin 1-nonlin 2-no                                               
   RPACOR =    2.000    partial core radius                                                         
   POMASS =   40.078; ZVAL   =   10.000    mass and valenz                                          
   RCORE  =    2.300    outmost cutoff radius                                                       
   RWIGS  =    2.500; RWIGS  =    1.323    wigner-seitz radius (au A)                               
   ENMAX  =  266.622; ENMIN  =  199.967 eV                                                          
   RCLOC  =    1.808    cutoff for local pot                                                        
   LCOR   =        T    correct aug charges                                                         
   LPAW   =        T    paw PP                                                                      
   EAUG   =  420.852                                                                                
   RMAX   =    2.359    core radius for proj-oper                                                   
   RAUG   =    1.300    factor for augmentation sphere                                              
   RDEP   =    2.392    radius for radial grids                                                     
   RDEPT  =    1.987    core radius for aug-charge                                                  
                                                                                                    
   Atomic configuration                                                                             
    7 entries                                                                                       
     n  l   j            E        occ.                                                              
     1  0  0.50     -3949.1705   2.0000                                                             
     2  0  0.50      -414.3434   2.0000                                                             
     2  1  1.50      -334.7047   6.0000                                                             
     3  0  0.50       -47.0896   2.0000                                                             
     4  0  0.50        -3.7663   2.0000                                                             
     3  1  1.50       -28.0061   6.0000                                                             
     3  2  1.50        -4.0817   0.0000                                                             
   Description                                                                                      
     l       E           TYP  RCUT    TYP  RCUT                                                     
     0    -47.0896403     23  2.300                                                                 
     0     -3.7663320     23  2.300                                                                 
     1    -28.0060855     23  2.300                                                                 
     1      6.8029130     23  2.300                                                                 
     2     -4.0817478     23  2.300                                                                 
     2      0.4464412     23  2.300                                                                 
  local pseudopotential read in
  partial core-charges read in
  partial kinetic energy density read in
  atomic valenz-charges read in
  non local Contribution for L=           0  read in
    real space projection operators read in
  non local Contribution for L=           0  read in
    real space projection operators read in
  non local Contribution for L=           1  read in
    real space projection operators read in
  non local Contribution for L=           1  read in
    real space projection operators read in
  non local Contribution for L=           2  read in
    real space projection operators read in
  non local Contribution for L=           2  read in
    real space projection operators read in
    PAW grid and wavefunctions read in
 
   number of l-projection  operators is LMAX  =           6
   number of lm-projection operators is LMMAX =          18
 
 POTCAR:    PAW_PBE Ti 08Apr2002                  
   SHA256 =  f8e8f1d080d9e9b45e792f1068744b07aba8441d1e7ce11486a5d4c0f5a1479e Ti/POTCAR             
   COPYR  = (c) Copyright 08Apr2002 Georg Kresse                                                    
   COPYR  = This file is part of the software VASP. Any use, copying, and all other rights are regul
   COPYR  = If you do not have a valid VASP license, you may not use, copy or distribute this file. 
   VRHFIN =Ti: d3 s1                                                                                
   LEXCH  = PE                                                                                      
   EATOM  =    94.7928 eV,    6.9671 Ry                                                             
                                                                                                    
   TITEL  = PAW_PBE Ti 08Apr2002                                                                    
   LULTRA =        F    use ultrasoft PP ?                                                          
   IUNSCR =        1    unscreen: 0-lin 1-nonlin 2-no                                               
   RPACOR =    2.200    partial core radius                                                         
   POMASS =   47.880; ZVAL   =    4.000    mass and valenz                                          
   RCORE  =    2.800    outmost cutoff radius                                                       
   RWIGS  =    2.500; RWIGS  =    1.323    wigner-seitz radius (au A)                               
   ENMAX  =  178.330; ENMIN  =  133.747 eV                                                          
   RCLOC  =    2.215    cutoff for local pot                                                        
   LCOR   =        T    correct aug charges                                                         
   LPAW   =        T    paw PP                                                                      
   EAUG   =  328.883                                                                                
   DEXC   =    0.000                                                                                
   RMAX   =    2.868    core radius for proj-oper                                                   
   RAUG   =    1.300    factor for augmentation sphere                                              
   RDEP   =    2.885    radius for radial grids                                                     
   RDEPT  =    2.320    core radius for aug-charge                                                  
                                                                                                    
   Atomic configuration                                                                             
    9 entries                                                                                       
     n  l   j            E        occ.                                                              
     1  0  0.50     -4865.3608   2.0000                                                             
     2  0  0.50      -533.1367   2.0000                                                             
     2  1  1.50      -440.5031   6.0000                                                             
     3  0  0.50       -59.3186   2.0000                                                             
     3  1  1.50       -35.7012   6.0000                                                             
     3  2  2.50        -1.9157   3.0000                                                             
     4  0  0.50        -3.7291   1.0000                                                             
     4  1  1.50        -4.0817   0.0000                                                             
     4  3  2.50        -1.3606   0.0000                                                             
   Description                                                                                      
     l       E           TYP  RCUT    TYP  RCUT                                                     
     2     -1.9156924     23  2.800                                                                 
     2     -0.4062961     23  2.800                                                                 
     0     -3.7290832     23  2.800                                                                 
     0     20.4087390     23  2.800                                                                 
     1     -5.4423304     23  2.800                                                                 
  local pseudopotential read in
  partial core-charges read in
  partial kinetic energy density read in
  atomic valenz-charges read in
  non local Contribution for L=           2  read in
    real space projection operators read in
  non local Contribution for L=           2  read in
    real space projection operators read in
  non local Contribution for L=           0  read in
    real space projection operators read in
  non local Contribution for L=           0  read in
    real space projection operators read in
  non local Contribution for L=           1  read in
    real space projection operators read in
    PAW grid and wavefunctions read in
 
   number of l-projection  operators is LMAX  =           5
   number of lm-projection operators is LMMAX =          15
 
 POTCAR:    PAW_PBE O 08Apr2002                   
   SHA256 =  818f92134a0a090dccd8ba1447fa70422a3b330e708bb4f08108d8ae51209ddf O/POTCAR              
   COPYR  = (c) Copyright 08Apr2002 Georg Kresse                                                    
   COPYR  = This file is part of the software VASP. Any use, copying, and all other rights are regul
   COPYR  = If you do not have a valid VASP license, you may not use, copy or distribute this file. 
   VRHFIN =O: s2p4                                                                                  
   LEXCH  = PE                                                                                      
   EATOM  =   432.3788 eV,   31.7789 Ry                                                             
                                                                                                    
   TITEL  = PAW_PBE O 08Apr2002                                                                     
   LULTRA =        F    use ultrasoft PP ?                                                          
   IUNSCR =        1    unscreen: 0-lin 1-nonlin 2-no                                               
   RPACOR =    1.200    partial core radius                                                         
   POMASS =   16.000; ZVAL   =    6.000    mass and valenz                                          
   RCORE  =    1.520    outmost cutoff radius                                                       
   RWIGS  =    1.550; RWIGS  =    0.820    wigner-seitz radius (au A)                               
   ENMAX  =  400.000; ENMIN  =  300.000 eV                                                          
   ICORE  =        2    local potential                                                             
   LCOR   =        T    correct aug charges                                                         
   LPAW   =        T    paw PP                                                                      
   EAUG   =  605.392                                                                                
   DEXC   =    0.000                                                                                
   RMAX   =    1.553    core radius for proj-oper                                                   
   RAUG   =    1.300    factor for augmentation sphere                                              
   RDEP   =    1.550    radius for radial grids                                                     
   RDEPT  =    1.329    core radius for aug-charge                                                  
                                                                                                    
   Atomic configuration                                                                             
    4 entries                                                                                       
     n  l   j            E        occ.                                                              
     1  0  0.50      -514.6923   2.0000                                                             
     2  0  0.50       -23.9615   2.0000                                                             
     2  1  0.50        -9.0305   4.0000                                                             
     3  2  1.50        -9.5241   0.0000                                                             
   Description                                                                                      
     l       E           TYP  RCUT    TYP  RCUT                                                     
     0    -23.9615318     23  1.200                                                                 
     0     -9.5240782     23  1.200                                                                 
     1     -9.0304911     23  1.520                                                                 
     1      8.1634956     23  1.520                                                                 
     2     -9.5240782      7  1.500                                                                 
  local pseudopotential read in
  partial core-charges read in
  partial kinetic energy density read in
  kinetic energy density of atom read in
  atomic valenz-charges read in
  non local Contribution for L=           0  read in
    real space projection operators read in
  non local Contribution for L=           0  read in
    real space projection operators read in
  non local Contribution for L=           1  read in
    real space projection operators read in
  non local Contribution for L=           1  read in
    real space projection operators read in
    PAW grid and wavefunctions read in
 
   number of l-projection  operators is LMAX  =           4
   number of lm-projection operators is LMMAX =           8
 
 Optimization of the real space projectors (new method)

 maximal supplied QI-value         = 16.25
 optimisation between [QCUT,QGAM] = [ 11.54, 23.24] = [ 37.28,151.24] Ry 
 Optimized for a Real-space Cutoff    1.58 Angstroem

   l    n(q)    QCUT    max X(q) W(low)/X(q) W(high)/X(q)  e(spline) 
   0     11    11.539    11.817    0.25E-04    0.22E-05    0.26E-07
   0     11    11.539     8.461    0.39E-04    0.49E-05    0.55E-07
   1     11    11.539     3.957    0.21E-05    0.44E-05    0.32E-07
   1     11    11.539     4.314    0.56E-04    0.44E-04    0.19E-06
   2     10    11.539    14.565    0.25E-03    0.21E-04    0.75E-06
   2     10    11.539    14.552    0.23E-03    0.22E-04    0.72E-06
 Optimization of the real space projectors (new method)

 maximal supplied QI-value         = 13.42
 optimisation between [QCUT,QGAM] = [ 11.67, 23.35] = [ 38.16,152.62] Ry 
 Optimized for a Real-space Cutoff    1.58 Angstroem

   l    n(q)    QCUT    max X(q) W(low)/X(q) W(high)/X(q)  e(spline) 
   2     10    11.673    49.363    0.16E-03    0.28E-03    0.91E-06
   2     10    11.673    47.669    0.16E-03    0.27E-03    0.88E-06
   0     11    11.673    26.374    0.54E-04    0.10E-03    0.52E-06
   0     11    11.673    11.549    0.41E-04    0.83E-04    0.43E-06
   1     11    11.673     9.492    0.36E-04    0.11E-04    0.17E-06
 Optimization of the real space projectors (new method)

 maximal supplied QI-value         = 24.76
 optimisation between [QCUT,QGAM] = [ 11.64, 23.27] = [ 37.91,151.63] Ry 
 Optimized for a Real-space Cutoff    1.14 Angstroem

   l    n(q)    QCUT    max X(q) W(low)/X(q) W(high)/X(q)  e(spline) 
   0      8    11.635    20.381    0.10E-03    0.33E-03    0.24E-06
   0      8    11.635    15.268    0.11E-03    0.35E-03    0.26E-06
   1      7    11.635     5.964    0.24E-03    0.31E-03    0.30E-06
   1      7    11.635     5.382    0.22E-03    0.25E-03    0.26E-06
  PAW_PBE Ca_sv 06Sep2000               :
 energy of atom  1       EATOM=-1006.0909
 kinetic energy error for atom=    0.0022 (will be added to EATOM!!)
  PAW_PBE Ti 08Apr2002                  :
 energy of atom  2       EATOM=  -94.7928
 kinetic energy error for atom=    0.0002 (will be added to EATOM!!)
  PAW_PBE O 08Apr2002                   :
 energy of atom  3       EATOM= -432.3788
 kinetic energy error for atom=    0.0208 (will be added to EATOM!!)
 
 
 POSCAR: Ca4 Ti4 O12
  positions in direct lattice
  No initial velocities read in
 exchange correlation table for  LEXCH =        8
   RHO(1)=    0.500       N(1)  =     2000
   RHO(2)=  100.500       N(2)  =     4000
 


--------------------------------------------------------------------------------------------------------


 ion  position               nearest neighbor table
   1  0.509  0.542  0.750-   9 2.35  17 2.37  20 2.37  11 2.44   7 3.15   8 3.15
   2  0.491  0.458  0.250-  10 2.35  18 2.37  19 2.37  12 2.44   7 3.15   8 3.15
   3  0.991  0.042  0.750-  11 2.35  13 2.37  16 2.37   9 2.44   5 3.15   6 3.15
   4  0.009  0.958  0.250-  12 2.35  14 2.37  15 2.37  10 2.44   5 3.15   6 3.15
   5  0.000  0.500  0.500-   9 1.96  10 1.96  18 1.96  20 1.96  16 1.97  14 1.97   3 3.15   4 3.15

   6  0.000  0.500  0.000-   9 1.96  10 1.96  19 1.96  17 1.96  13 1.97  15 1.97   3 3.15   4 3.15

   7  0.500  0.000  0.500-  11 1.96  12 1.96  14 1.96  16 1.96  20 1.97  18 1.97   1 3.15   2 3.15

   8  0.500  0.000  0.000-  11 1.96  12 1.96  15 1.96  13 1.96  17 1.97  19 1.97   1 3.15   2 3.15

   9  0.077  0.481  0.750-   5 1.96   6 1.96   1 2.35   3 2.44
  10  0.923  0.519  0.250-   5 1.96   6 1.96   2 2.35   4 2.44
  11  0.423  0.981  0.750-   7 1.96   8 1.96   3 2.35   1 2.44
  12  0.577  0.019  0.250-   7 1.96   8 1.96   4 2.35   2 2.44
  13  0.790  0.790  0.960-   8 1.96   6 1.97   3 2.37
  14  0.210  0.210  0.460-   7 1.96   5 1.97   4 2.37
  15  0.210  0.210  0.040-   8 1.96   6 1.97   4 2.37
  16  0.790  0.790  0.540-   7 1.96   5 1.97   3 2.37
  17  0.710  0.290  0.960-   6 1.96   8 1.97   1 2.37
  18  0.290  0.710  0.460-   5 1.96   7 1.97   2 2.37
  19  0.290  0.710  0.040-   6 1.96   8 1.97   2 2.37
  20  0.710  0.290  0.540-   5 1.96   7 1.97   1 2.37
 
  LATTYP: Found a simple orthorhombic cell.
 ALAT       =     5.3720488600
 B/A-ratio  =     1.0168925548
 C/A-ratio  =     1.4214985416
  
  Lattice vectors:
  
 A1 = (   5.3720488600,   0.0000000000,   0.0000000000)
 A2 = (  -0.0000000000,   5.4627964900,   0.0000000000)
 A3 = (   0.0000000000,   0.0000000000,   7.6363596200)


Analysis of symmetry for initial positions (statically):
=====================================================================
 Subroutine PRICEL returns:
 Original cell was already a primitive cell.
 

 Routine SETGRP: Setting up the symmetry group for a 
 simple orthorhombic supercell.


 Subroutine GETGRP returns: Found  8 space group operations
 (whereof  2 operations were pure point group operations)
 out of a pool of  8 trial point group operations.


The static configuration has the point symmetry S_2 .
 The point group associated with its full space group is D_2h.


Analysis of symmetry for dynamics (positions and initial velocities):
=====================================================================
 Subroutine PRICEL returns:
 Original cell was already a primitive cell.
 

 Routine SETGRP: Setting up the symmetry group for a 
 simple orthorhombic supercell.


 Subroutine GETGRP returns: Found  8 space group operations
 (whereof  2 operations were pure point group operations)
 out of a pool of  8 trial point group operations.


The dynamic configuration has the point symmetry S_2 .
 The point group associated with its full space group is D_2h.


Analysis of structural, dynamic, and magnetic symmetry:
=====================================================================
 Subroutine PRICEL returns:
 Original cell was already a primitive cell.
 

 Routine SETGRP: Setting up the symmetry group for a 
 simple orthorhombic supercell.


 Subroutine GETGRP returns: Found  8 space group operations
 (whereof  2 operations were pure point group operations)
 out of a pool of  8 trial point group operations.


The overall configuration has the point symmetry S_2 .
 The point group associated with its full space group is D_2h.


 Subroutine INISYM returns: Found  8 space group operations
 (whereof  2 operations are pure point group operations),
 and found     1 'primitive' translations


----------------------------------------------------------------------------------------

                                     Primitive cell                                     

  volume of cell :     224.0997

  direct lattice vectors                    reciprocal lattice vectors
     5.372048860  0.000000000  0.000000000     0.186148716  0.000000000  0.000000000
    -0.000000000  5.462796490  0.000000000     0.000000000  0.183056426  0.000000000
     0.000000000  0.000000000  7.636359620    -0.000000000 -0.000000000  0.130952450

  length of vectors
     5.372048860  5.462796490  7.636359620     0.186148716  0.183056426  0.130952450

  position of ions in fractional coordinates (direct lattice)
     0.509066910  0.542397550  0.750000000
     0.490933090  0.457602450  0.250000000
     0.990933090  0.042397550  0.750000000
     0.009066910  0.957602450  0.250000000
     1.000000000  0.500000000  0.500000000
     1.000000000  0.500000000  0.000000000
     0.500000000  0.000000000  0.500000000
     0.500000000  0.000000000  1.000000000
     0.076781110  0.481327620  0.750000000
     0.923218890  0.518672380  0.250000000
     0.423218890  0.981327620  0.750000000
     0.576781110  0.018672380  0.250000000
     0.790293720  0.789613780  0.959841280
     0.209706280  0.210386220  0.459841280
     0.209706280  0.210386220  0.040158720
     0.790293720  0.789613780  0.540158720
     0.709706280  0.289613780  0.959841280
     0.290293720  0.710386220  0.459841280
     0.290293720  0.710386220  0.040158720
     0.709706280  0.289613780  0.540158720

  ion indices of the primitive-cell ions
   primitive index   ion index
                 1           1
                 2           2
                 3           3
                 4           4
                 5           5
                 6           6
                 7           7
                 8           8
                 9           9
                10          10
                11          11
                12          12
                13          13
                14          14
                15          15
                16          16
                17          17
                18          18
                19          19
                20          20

----------------------------------------------------------------------------------------

 
 
 KPOINTS: pymatgen with grid density = 1417 / numb

Automatic generation of k-mesh.
 Grid dimensions read from file:
 generate k-points for:    4    4    3

 Generating k-lattice:

  Cartesian coordinates                     Fractional coordinates (reciprocal lattice)
     0.046537179  0.000000000  0.000000000     0.250000000 -0.000000000  0.000000000
     0.000000000  0.045764106  0.000000000     0.000000000  0.250000000  0.000000000
    -0.000000000 -0.000000000  0.043650817    -0.000000000 -0.000000000  0.333333333

  Length of vectors
     0.046537179  0.045764106  0.043650817

  Shift w.r.t. Gamma in fractional coordinates (k-lattice)
     0.000000000  0.000000000  0.000000000

 
 Subroutine IBZKPT returns following result:
 ===========================================
 
 Found     18 irreducible k-points:
 
 Following reciprocal coordinates:
            Coordinates               Weight
  0.000000  0.000000  0.000000      1.000000
  0.250000 -0.000000  0.000000      2.000000
  0.500000 -0.000000  0.000000      1.000000
  0.000000  0.250000  0.000000      2.000000
  0.250000  0.250000  0.000000      4.000000
  0.500000  0.250000  0.000000      2.000000
  0.000000  0.500000  0.000000      1.000000
  0.250000  0.500000  0.000000      2.000000
  0.500000  0.500000  0.000000      1.000000
  0.000000  0.000000  0.333333      2.000000
  0.250000  0.000000  0.333333      4.000000
  0.500000  0.000000  0.333333      2.000000
  0.000000  0.250000  0.333333      4.000000
  0.250000  0.250000  0.333333      8.000000
  0.500000  0.250000  0.333333      4.000000
  0.000000  0.500000  0.333333      2.000000
  0.250000  0.500000  0.333333      4.000000
  0.500000  0.500000  0.333333      2.000000
 
 Following cartesian coordinates:
            Coordinates               Weight
  0.000000  0.000000  0.000000      1.000000
  0.046537  0.000000  0.000000      2.000000
  0.093074  0.000000  0.000000      1.000000
  0.000000  0.045764  0.000000      2.000000
  0.046537  0.045764  0.000000      4.000000
  0.093074  0.045764  0.000000      2.000000
  0.000000  0.091528  0.000000      1.000000
  0.046537  0.091528  0.000000      2.000000
  0.093074  0.091528  0.000000      1.000000
 -0.000000 -0.000000  0.043651      2.000000
  0.046537  0.000000  0.043651      4.000000
  0.093074  0.000000  0.043651      2.000000
 -0.000000  0.045764  0.043651      4.000000
  0.046537  0.045764  0.043651      8.000000
  0.093074  0.045764  0.043651      4.000000
 -0.000000  0.091528  0.043651      2.000000
  0.046537  0.091528  0.043651      4.000000
  0.093074  0.091528  0.043651      2.000000
 


--------------------------------------------------------------------------------------------------------




 Dimension of arrays:
   k-points           NKPTS =     18   k-points in BZ     NKDIM =     18   number of bands    NBANDS=     84
   number of dos      NEDOS =    301   number of ions     NIONS =     20
   non local maximal  LDIM  =      6   non local SUM 2l+1 LMDIM =     18
   total plane-waves  NPLWV = 100800
   max r-space proj   IRMAX =   7479   max aug-charges    IRDMAX=  31261
   dimension x,y,z NGX =    40 NGY =   42 NGZ =   60
   dimension x,y,z NGXF=    80 NGYF=   84 NGZF=  120
   support grid    NGXF=    80 NGYF=   84 NGZF=  120
   ions per type =               4   4  12
   NGX,Y,Z   is equivalent  to a cutoff of  12.38, 12.78, 13.06 a.u.
   NGXF,Y,Z  is equivalent  to a cutoff of  24.76, 25.56, 26.12 a.u.

 SYSTEM =  unknown system                          
 POSCAR =  Ca4 Ti4 O12                             

 Startparameter for this run:
   NWRITE =      2    write-flag & timer
   PREC   = accura    normal or accurate (medium, high low for compatibility)
   ISTART =      0    job   : 0-new  1-cont  2-samecut
   ICHARG =      2    charge: 1-file 2-atom 10-const
   ISPIN  =      2    spin polarized calculation?
   LNONCOLLINEAR =      F non collinear calculations
   LSORBIT =      F    spin-orbit coupling
   INIWAV =      1    electr: 0-lowe 1-rand  2-diag
   LASPH  =      T    aspherical Exc in radial PAW
 Electronic Relaxation 1
   ENCUT  =  520.0 eV  38.22 Ry    6.18 a.u.   9.99 10.16 14.20*2*pi/ulx,y,z
   ENINI  =  520.0     initial cutoff
   ENAUG  =  605.4 eV  augmentation charge cutoff
   NELM   =    500;   NELMIN=  2; NELMDL= -5     # of ELM steps 
   EDIFF  = 0.1E-03   stopping-criterion for ELM
   LREAL  =      T    real-space projection
   NLSPLINE    = F    spline interpolate recip. space projectors
   LCOMPAT=      F    compatible to vasp.4.4
   GGA_COMPAT  = T    GGA compatible to vasp.4.4-vasp.4.6
   LMAXPAW     = -100 max onsite density
   LMAXMIX     =    4 max onsite mixed and CHGCAR
   VOSKOWN=      0    Vosko Wilk Nusair interpolation
   ROPT   =   -0.00025  -0.00025  -0.00025
 Ionic relaxation
   EDIFFG = -.1E-02   stopping-criterion for IOM
   NSW    =     99    number of steps for IOM
   NBLOCK =      1;   KBLOCK =     99    inner block; outer block 
   IBRION =      2    ionic relax: 0-MD 1-quasi-New 2-CG
   NFREE  =      1    steps in history (QN), initial steepest desc. (CG)
   ISIF   =      3    stress and relaxation
   IWAVPR =     11    prediction:  0-non 1-charg 2-wave 3-comb
   ISYM   =      2    0-nonsym 1-usesym 2-fastsym
   LCORR  =      T    Harris-Foulkes like correction to forces

   POTIM  = 0.5000    time-step for ionic-motion
   TEIN   =    0.0    initial temperature
   TEBEG  =    0.0;   TEEND  =   0.0 temperature during run
   SMASS  =  -3.00    Nose mass-parameter (am)
   estimated Nose-frequenzy (Omega)   =  0.10E-29 period in steps = 0.13E+47 mass=  -0.660E-27a.u.
   SCALEE = 1.0000    scale energy and forces
   NPACO  =    256;   APACO  = 10.0  distance and # of slots for P.C.
   PSTRESS=    0.0 pullay stress

  Mass of Ions in am
   POMASS =  40.08 47.88 16.00
  Ionic Valenz
   ZVAL   =  10.00  4.00  6.00
  Atomic Wigner-Seitz radii
   RWIGS  =  -1.00 -1.00 -1.00
  virtual crystal weights 
   VCA    =   1.00  1.00  1.00
   NELECT =     128.0000    total number of electrons
   NUPDOWN=      -1.0000    fix difference up-down

 DOS related values:
   EMIN   =  10.00;   EMAX   =-10.00  energy-range for DOS
   EFERMI =   0.00;   METHOD = LEGACY      
   ISMEAR =     0;   SIGMA  =   0.05  broadening in eV -4-tet -1-fermi 0-gaus

 Electronic relaxation 2 (details)
   IALGO  =     38    algorithm
   LDIAG  =      T    sub-space diagonalisation (order eigenvalues)
   LSUBROT=      F    optimize rotation matrix (better conditioning)
   TURBO    =      0    0=normal 1=particle mesh
   IRESTART =      0    0=no restart 2=restart with 2 vectors
   NREBOOT  =      0    no. of reboots
   NMIN     =      0    reboot dimension
   EREF     =   0.00    reference energy to select bands
   IMIX   =      4    mixing-type and parameters
     AMIX     =   0.40;   BMIX     =  1.00
     AMIX_MAG =   1.60;   BMIX_MAG =  1.00
     AMIN     =   0.10
     WC   =   100.;   INIMIX=   1;  MIXPRE=   1;  MAXMIX= -45

 Intra band minimization:
   WEIMIN = 0.0010     energy-eigenvalue tresh-hold
   EBREAK =  0.30E-06  absolut break condition
   DEPER  =   0.30     relativ break condition  

   TIME   =   0.40     timestep for ELM

  volume/ion in A,a.u.               =      11.20        75.61
  Fermi-wavevector in a.u.,A,eV,Ry     =   1.358306  2.566827 25.102693  1.844996
  Thomas-Fermi vector in A             =   2.485151
 
 Write flags
   LWAVE        =      F    write WAVECAR
   LDOWNSAMPLE  =      F    k-point downsampling of WAVECAR
   LCHARG       =      T    write CHGCAR
   LVTOT        =      F    write LOCPOT, total local potential
   LVHAR        =      F    write LOCPOT, Hartree potential only
   LELF         =      F    write electronic localiz. function (ELF)
   LORBIT       =     11    0 simple, 1 ext, 2 COOP (PROOUT), +10 PAW based schemes


 Dipole corrections
   LMONO  =      F    monopole corrections only (constant potential shift)
   LDIPOL =      F    correct potential (dipole corrections)
   IDIPOL =      0    1-x, 2-y, 3-z, 4-all directions 
   EPSILON=  1.0000000 bulk dielectric constant

 Exchange correlation treatment:
   GGA     =    --    GGA type
   LEXCH   =     8    internal setting for exchange type
   LIBXC   =     F    Libxc                    
   VOSKOWN =     0    Vosko Wilk Nusair interpolation
   LHFCALC =     F    Hartree Fock is set to
   LHFONE  =     F    Hartree Fock one center treatment
   AEXX    =    0.0000 exact exchange contribution

 Linear response parameters
   LEPSILON=     F    determine dielectric tensor
   LRPA    =     F    only Hartree local field effects (RPA)
   LNABLA  =     F    use nabla operator in PAW spheres
   LVEL    =     F    velocity operator in full k-point grid
   CSHIFT  =0.1000    complex shift for real part using Kramers Kronig
   OMEGAMAX=  -1.0    maximum frequency
   DEG_THRESHOLD= 0.2000000E-02 threshold for treating states as degnerate
   RTIME   =   -0.100 relaxation time in fs
  (WPLASMAI=    0.000 imaginary part of plasma frequency in eV, 0.658/RTIME)
   DFIELD  = 0.0000000 0.0000000 0.0000000 field for delta impulse in time
 
  Optional k-point grid parameters
   LKPOINTS_OPT  =     F    use optional k-point grid
   KPOINTS_OPT_MODE=     1    mode for optional k-point grid
 
 Orbital magnetization related:
   ORBITALMAG=     F  switch on orbital magnetization
   LCHIMAG   =     F  perturbation theory with respect to B field
   DQ        =  0.001000  dq finite difference perturbation B field
   LLRAUG    =     F  two centre corrections for induced B field
   LBONE     =     F  B-component reconstruction in AE one-centre
   LVGVCALC  =     T  calculate vGv susceptibility
   LVGVAPPL  =     F  apply vGv susceptibility instead of pGv for G=0

 Random number generation:
   RANDOM_GENERATOR = DEFAULT
   PCG_SEED         = not used


--------------------------------------------------------------------------------------------------------


 conjugate gradient relaxation of ions
 charge density and potential will be updated during run
 spin polarized calculation
 Variant of blocked Davidson
 Davidson routine will perform the subspace rotation
 perform sub-space diagonalisation
    after iterative eigenvector-optimisation
 modified Broyden-mixing scheme, WC =      100.0
 initial mixing is a Kerker type mixing with AMIX =  0.4000 and BMIX =      1.0000
 Hartree-type preconditioning will be used
 using additional bands           20
 real space projection scheme for non local part
 use partial core corrections
 calculate Harris-corrections to forces 
   (improved forces if not selfconsistent)
 use gradient corrections 
 use of overlap-Matrix (Vanderbilt PP)
 Gauss-broadening in eV      SIGMA  =   0.05


--------------------------------------------------------------------------------------------------------


  energy-cutoff  :      520.00
  volume of cell :      224.10
      direct lattice vectors                 reciprocal lattice vectors
     5.372048860  0.000000000  0.000000000     0.186148716  0.000000000  0.000000000
    -0.000000000  5.462796490  0.000000000     0.000000000  0.183056426  0.000000000
     0.000000000  0.000000000  7.636359620    -0.000000000 -0.000000000  0.130952450

  length of vectors
     5.372048860  5.462796490  7.636359620     0.186148716  0.183056426  0.130952450


 
 k-points in units of 2pi/SCALE and weight: pymatgen with grid density = 1417 / numb
   0.00000000  0.00000000  0.00000000       0.021
   0.04653718  0.00000000  0.00000000       0.042
   0.09307436  0.00000000  0.00000000       0.021
   0.00000000  0.04576411  0.00000000       0.042
   0.04653718  0.04576411  0.00000000       0.083
   0.09307436  0.04576411  0.00000000       0.042
   0.00000000  0.09152821  0.00000000       0.021
   0.04653718  0.09152821  0.00000000       0.042
   0.09307436  0.09152821  0.00000000       0.021
  -0.00000000 -0.00000000  0.04365082       0.042
   0.04653718  0.00000000  0.04365082       0.083
   0.09307436  0.00000000  0.04365082       0.042
  -0.00000000  0.04576411  0.04365082       0.083
   0.04653718  0.04576411  0.04365082       0.167
   0.09307436  0.04576411  0.04365082       0.083
  -0.00000000  0.09152821  0.04365082       0.042
   0.04653718  0.09152821  0.04365082       0.083
   0.09307436  0.09152821  0.04365082       0.042
 
 k-points in reciprocal lattice and weights: pymatgen with grid density = 1417 / numb
   0.00000000  0.00000000  0.00000000       0.021
   0.25000000 -0.00000000  0.00000000       0.042
   0.50000000 -0.00000000  0.00000000       0.021
   0.00000000  0.25000000  0.00000000       0.042
   0.25000000  0.25000000  0.00000000       0.083
   0.50000000  0.25000000  0.00000000       0.042
   0.00000000  0.50000000  0.00000000       0.021
   0.25000000  0.50000000  0.00000000       0.042
   0.50000000  0.50000000  0.00000000       0.021
   0.00000000  0.00000000  0.33333333       0.042
   0.25000000  0.00000000  0.33333333       0.083
   0.50000000  0.00000000  0.33333333       0.042
   0.00000000  0.25000000  0.33333333       0.083
   0.25000000  0.25000000  0.33333333       0.167
   0.50000000  0.25000000  0.33333333       0.083
   0.00000000  0.50000000  0.33333333       0.042
   0.25000000  0.50000000  0.33333333       0.083
   0.50000000  0.50000000  0.33333333       0.042
 
 position of ions in fractional coordinates (direct lattice) 
   0.50906691  0.54239755  0.75000000
   0.49093309  0.45760245  0.25000000
   0.99093309  0.04239755  0.75000000
   0.00906691  0.95760245  0.25000000
   0.00000000  0.50000000  0.50000000
   0.00000000  0.50000000  0.00000000
   0.50000000  0.00000000  0.50000000
   0.50000000  0.00000000  0.00000000
   0.07678111  0.48132762  0.75000000
   0.92321889  0.51867238  0.25000000
   0.42321889  0.98132762  0.75000000
   0.57678111  0.01867238  0.25000000
   0.79029372  0.78961378  0.95984128
   0.20970628  0.21038622  0.45984128
   0.20970628  0.21038622  0.04015872
   0.79029372  0.78961378  0.54015872
   0.70970628  0.28961378  0.95984128
   0.29029372  0.71038622  0.45984128
   0.29029372  0.71038622  0.04015872
   0.70970628  0.28961378  0.54015872
 
 position of ions in cartesian coordinates  (Angst):
   2.73473231  2.96300743  5.72726972
   2.63731655  2.49978906  1.90908991
   5.32334098  0.23160919  5.72726972
   0.04870788  5.23118730  1.90908991
  -0.00000000  2.73139824  3.81817981
  -0.00000000  2.73139824  0.00000000
   2.68602443  0.00000000  3.81817981
   2.68602443  0.00000000  0.00000000
   0.41247187  2.62939483  5.72726972
   4.95957699  2.83340166  1.90908991
   2.27355256  5.36079308  5.72726972
   3.09849630  0.10200341  1.90908991
   4.24549648  4.31349939  7.32969319
   1.12655238  1.14929710  3.51151338
   1.12655238  1.14929710  0.30666643
   4.24549648  4.31349939  4.12484624
   3.81257681  1.58210114  7.32969319
   1.55947205  3.88069535  3.51151338
   1.55947205  3.88069535  0.30666643
   3.81257681  1.58210114  4.12484624
 


--------------------------------------------------------------------------------------------------------


 k-point   1 :   0.0000 0.0000 0.0000  plane waves:    6019
 k-point   2 :   0.2500-0.0000 0.0000  plane waves:    6026
 k-point   3 :   0.5000-0.0000 0.0000  plane waves:    6064
 k-point   4 :   0.0000 0.2500 0.0000  plane waves:    6034
 k-point   5 :   0.2500 0.2500 0.0000  plane waves:    6033
 k-point   6 :   0.5000 0.2500 0.0000  plane waves:    6046
 k-point   7 :   0.0000 0.5000 0.0000  plane waves:    6024
 k-point   8 :   0.2500 0.5000 0.0000  plane waves:    6026
 k-point   9 :   0.5000 0.5000 0.0000  plane waves:    6024
 k-point  10 :   0.0000 0.0000 0.3333  plane waves:    6016
 k-point  11 :   0.2500 0.0000 0.3333  plane waves:    6030
 k-point  12 :   0.5000 0.0000 0.3333  plane waves:    6034
 k-point  13 :   0.0000 0.2500 0.3333  plane waves:    6009
 k-point  14 :   0.2500 0.2500 0.3333  plane waves:    6042
 k-point  15 :   0.5000 0.2500 0.3333  plane waves:    6034
 k-point  16 :   0.0000 0.5000 0.3333  plane waves:    6018
 k-point  17 :   0.2500 0.5000 0.3333  plane waves:    6048
 k-point  18 :   0.5000 0.5000 0.3333  plane waves:    6048

 maximum and minimum number of plane-waves per node :      6064     6009

 maximum number of plane-waves:      6064
 maximum index in each direction: 
   IXMAX=    9   IYMAX=   10   IZMAX=   14
   IXMIN=  -10   IYMIN=  -10   IZMIN=  -14


 serial   3D FFT for wavefunctions
 parallel 3D FFT for charge:
    minimum data exchange during FFTs selected (reduces bandwidth)


 total amount of memory used by VASP MPI-rank0   153318. kBytes
=======================================================================

   base      :      30000. kBytes
   nonlr-proj:      13203. kBytes
   fftplans  :       7285. kBytes
   grid      :      26100. kBytes
   one-center:        622. kBytes
   wavefun   :      76108. kBytes
 
     INWAV:  cpu time      0.0000: real time      0.0000
 Broyden mixing: mesh for mixing (old mesh)
   NGX = 19   NGY = 21   NGZ = 29
  (NGX  = 80   NGY  = 84   NGZ  =120)
  gives a total of  11571 points

 initial charge density was supplied:
 charge density of overlapping atoms calculated
 number of electron     128.0000000 magnetization      12.0000000
 keeping initial charge density in first step


--------------------------------------------------------------------------------------------------------


 Maximum index for non-local projection operator         7222
 Maximum index for augmentation-charges         7557 (set IRDMAX)


--------------------------------------------------------------------------------------------------------


 First call to EWALD:  gamma=   0.292
 Maximum number of real-space cells 3x 3x 2
 Maximum number of reciprocal cells 2x 3x 3

    FEWALD:  cpu time      0.0012: real time      0.0012


--------------------------------------- Ionic step        1  -------------------------------------------




--------------------------------------- Iteration      1(   1)  ---------------------------------------


    POTLOK:  cpu time      0.1647: real time      0.1653
    SETDIJ:  cpu time      1.2687: real time      1.2687
     EDDAV:  cpu time      9.0488: real time      9.0592
       DOS:  cpu time      0.0015: real time      0.0015
    --------------------------------------------
      LOOP:  cpu time     10.4837: real time     10.4948

 eigenvalue-minimisations  :  6048
 total energy-change (2. order) : 0.1684865E+04  (-0.5801851E+04)
 number of electron     128.0000000 magnetization      12.0000000
 augmentation part      128.0000000 magnetization      12.0000000

 Free energy of the ion-electron system (eV)
  ---------------------------------------------------
  alpha Z        PSCENC =       650.07102411
  Ewald energy   TEWEN  =     -7863.51899147
  -Hartree energ DENC   =     -1908.06795490
  -exchange      EXHF   =         0.00000000
  -V(xc)+E(xc)   XCENC  =       357.02247046
  PAW double counting   =      7644.16426458    -7463.81468790
  entropy T*S    EENTRO =        -0.00675259
  eigenvalues    EBANDS =       677.19420986
  atomic energy  EATOM  =      9591.82113463
  Solvation  Ediel_sol  =         0.00000000
  ---------------------------------------------------
  free energy    TOTEN  =      1684.86471678 eV

  energy without entropy =     1684.87146937  energy(sigma->0) =     1684.86809307


--------------------------------------------------------------------------------------------------------




--------------------------------------- Iteration      1(   2)  ---------------------------------------


     EDDAV:  cpu time      9.0146: real time      9.0150
       DOS:  cpu time      0.0014: real time      0.0014
    --------------------------------------------
      LOOP:  cpu time      9.0160: real time      9.0163

 eigenvalue-minimisations  :  6072
 total energy-change (2. order) :-0.1522725E+04  (-0.1420738E+04)
 number of electron     128.0000000 magnetization      12.0000000
 augmentation part      128.0000000 magnetization      12.0000000

 Free energy of the ion-electron system (eV)
  ---------------------------------------------------
  alpha Z        PSCENC =       650.07102411
  Ewald energy   TEWEN  =     -7863.51899147
  -Hartree energ DENC   =     -1908.06795490
  -exchange      EXHF   =         0.00000000
  -V(xc)+E(xc)   XCENC  =       357.02247046
  PAW double counting   =      7644.16426458    -7463.81468790
  entropy T*S    EENTRO =        -0.00624581
  eigenvalues    EBANDS =      -845.53170343
  atomic energy  EATOM  =      9591.82113463
  Solvation  Ediel_sol  =         0.00000000
  ---------------------------------------------------
  free energy    TOTEN  =       162.13931026 eV

  energy without entropy =      162.14555607  energy(sigma->0) =      162.14243317


--------------------------------------------------------------------------------------------------------




--------------------------------------- Iteration      1(   3)  ---------------------------------------


     EDDAV:  cpu time     10.5336: real time     10.5340
       DOS:  cpu time      0.0011: real time      0.0011
    --------------------------------------------
      LOOP:  cpu time     10.5347: real time     10.5351

 eigenvalue-minimisations  :  7416
 total energy-change (2. order) :-0.3416098E+03  (-0.3271262E+03)
 number of electron     128.0000000 magnetization      12.0000000
 augmentation part      128.0000000 magnetization      12.0000000

 Free energy of the ion-electron system (eV)
  ---------------------------------------------------
  alpha Z        PSCENC =       650.07102411
  Ewald energy   TEWEN  =     -7863.51899147
  -Hartree energ DENC   =     -1908.06795490
  -exchange      EXHF   =         0.00000000
  -V(xc)+E(xc)   XCENC  =       357.02247046
  PAW double counting   =      7644.16426458    -7463.81468790
  entropy T*S    EENTRO =        -0.00000000
  eigenvalues    EBANDS =     -1187.14770457
  atomic energy  EATOM  =      9591.82113463
  Solvation  Ediel_sol  =         0.00000000
  ---------------------------------------------------
  free energy    TOTEN  =      -179.47044506 eV

  energy without entropy =     -179.47044506  energy(sigma->0) =     -179.47044506


--------------------------------------------------------------------------------------------------------




--------------------------------------- Iteration      1(   4)  ---------------------------------------


     EDDAV:  cpu time     10.9117: real time     10.9123
       DOS:  cpu time      0.0007: real time      0.0007
    --------------------------------------------
      LOOP:  cpu time     10.9124: real time     10.9130

 eigenvalue-minimisations  :  7720
 total energy-change (2. order) :-0.1918766E+02  (-0.1903334E+02)
 number of electron     128.0000000 magnetization      12.0000000
 augmentation part      128.0000000 magnetization      12.0000000

 Free energy of the ion-electron system (eV)
  ---------------------------------------------------
  alpha Z        PSCENC =       650.07102411
  Ewald energy   TEWEN  =     -7863.51899147
  -Hartree energ DENC   =     -1908.06795490
  -exchange      EXHF   =         0.00000000
  -V(xc)+E(xc)   XCENC  =       357.02247046
  PAW double counting   =      7644.16426458    -7463.81468790
  entropy T*S    EENTRO =        -0.00000000
  eigenvalues    EBANDS =     -1206.33536269
  atomic energy  EATOM  =      9591.82113463
  Solvation  Ediel_sol  =         0.00000000
  ---------------------------------------------------
  free energy    TOTEN  =      -198.65810318 eV

  energy without entropy =     -198.65810318  energy(sigma->0) =     -198.65810318


--------------------------------------------------------------------------------------------------------




--------------------------------------- Iteration      1(   5)  ---------------------------------------


     EDDAV:  cpu time     14.9225: real time     14.9229
       DOS:  cpu time      0.0008: real time      0.0008
    CHARGE:  cpu time      0.4642: real time      0.4642
    MIXING:  cpu time      0.0030: real time      0.0030
    --------------------------------------------
      LOOP:  cpu time     15.3904: real time     15.3908

 eigenvalue-minimisations  : 11208
 total energy-change (2. order) :-0.1201729E+01  (-0.1199466E+01)
 number of electron     127.9999983 magnetization       4.2490339
 augmentation part       21.7706577 magnetization       4.3684692

 Broyden mixing:
  rms(total) = 0.67452E+01    rms(broyden)= 0.67449E+01
  rms(prec ) = 0.81164E+01
  weight for this iteration     100.00

 Free energy of the ion-electron system (eV)
  ---------------------------------------------------
  alpha Z        PSCENC =       650.07102411
  Ewald energy   TEWEN  =     -7863.51899147
  -Hartree energ DENC   =     -1908.06795490
  -exchange      EXHF   =         0.00000000
  -V(xc)+E(xc)   XCENC  =       357.02247046
  PAW double counting   =      7644.16426458    -7463.81468790
  entropy T*S    EENTRO =        -0.00000000
  eigenvalues    EBANDS =     -1207.53709128
  atomic energy  EATOM  =      9591.82113463
  Solvation  Ediel_sol  =         0.00000000
  ---------------------------------------------------
  free energy    TOTEN  =      -199.85983178 eV

  energy without entropy =     -199.85983178  energy(sigma->0) =     -199.85983178


--------------------------------------------------------------------------------------------------------




--------------------------------------- Iteration      1(   6)  ---------------------------------------


    POTLOK:  cpu time      0.1666: real time      0.1666
    SETDIJ:  cpu time      1.2663: real time      1.2664
     EDDAV:  cpu time     11.8345: real time     11.8349
       DOS:  cpu time      0.0007: real time      0.0007
    CHARGE:  cpu time      0.4644: real time      0.4644
    MIXING:  cpu time      0.0034: real time      0.0034
    --------------------------------------------
      LOOP:  cpu time     13.7359: real time     13.7364

 eigenvalue-minimisations  :  8672
 total energy-change (2. order) : 0.4197583E+02  (-0.2306116E+02)
 number of electron     127.9999984 magnetization       1.6246256
 augmentation part       22.8641558 magnetization       1.5337629

 Broyden mixing:
  rms(total) = 0.20351E+01    rms(broyden)= 0.20339E+01
  rms(prec ) = 0.22849E+01
  weight for this iteration     100.00

 eigenvalues of (default mixing * dielectric matrix)
  average eigenvalue GAMMA=   1.0253
  1.0253

 Free energy of the ion-electron system (eV)
  ---------------------------------------------------
  alpha Z        PSCENC =       650.07102411
  Ewald energy   TEWEN  =     -7863.51899147
  -Hartree energ DENC   =     -2122.09552894
  -exchange      EXHF   =         0.00000000
  -V(xc)+E(xc)   XCENC  =       375.64412512
  PAW double counting   =      8955.03807108    -8793.95874296
  entropy T*S    EENTRO =        -0.00000000
  eigenvalues    EBANDS =      -950.88509072
  atomic energy  EATOM  =      9591.82113463
  Solvation  Ediel_sol  =         0.00000000
  ---------------------------------------------------
  free energy    TOTEN  =      -157.88399916 eV

  energy without entropy =     -157.88399916  energy(sigma->0) =     -157.88399916


--------------------------------------------------------------------------------------------------------




--------------------------------------- Iteration      1(   7)  ---------------------------------------


    POTLOK:  cpu time      0.1632: real time      0.1633
    SETDIJ:  cpu time      1.2758: real time      1.2759
     EDDAV:  cpu time     11.7283: real time     11.7286
       DOS:  cpu time      0.0007: real time      0.0007
    CHARGE:  cpu time      0.4636: real time      0.4636
    MIXING:  cpu time      0.0028: real time      0.0028
    --------------------------------------------
      LOOP:  cpu time     13.6345: real time     13.6349

 eigenvalue-minimisations  :  8600
 total energy-change (2. order) :-0.2767000E+01  (-0.4493099E+01)
 number of electron     127.9999985 magnetization      -0.3851245
 augmentation part       21.5081479 magnetization      -0.4305973

 Broyden mixing:
  rms(total) = 0.19571E+01    rms(broyden)= 0.19571E+01
  rms(prec ) = 0.21076E+01
  weight for this iteration     100.00

 eigenvalues of (default mixing * dielectric matrix)
  average eigenvalue GAMMA=   1.2539
  0.7118  1.7961

 Free energy of the ion-electron system (eV)
  ---------------------------------------------------
  alpha Z        PSCENC =       650.07102411
  Ewald energy   TEWEN  =     -7863.51899147
  -Hartree energ DENC   =     -2070.01147046
  -exchange      EXHF   =         0.00000000
  -V(xc)+E(xc)   XCENC  =       371.21144505
  PAW double counting   =      9497.92374679    -9346.97969375
  entropy T*S    EENTRO =        -0.00000000
  eigenvalues    EBANDS =      -991.16819408
  atomic energy  EATOM  =      9591.82113463
  Solvation  Ediel_sol  =         0.00000000
  ---------------------------------------------------
  free energy    TOTEN  =      -160.65099918 eV

  energy without entropy =     -160.65099918  energy(sigma->0) =     -160.65099918


--------------------------------------------------------------------------------------------------------




--------------------------------------- Iteration      1(   8)  ---------------------------------------


    POTLOK:  cpu time      0.1610: real time      0.1610
    SETDIJ:  cpu time      1.2692: real time      1.2692
     EDDAV:  cpu time     11.7465: real time     11.7470
       DOS:  cpu time      0.0006: real time      0.0006
    CHARGE:  cpu time      0.4634: real time      0.4635
    MIXING:  cpu time      0.0031: real time      0.0031
    --------------------------------------------
      LOOP:  cpu time     13.6437: real time     13.6443

 eigenvalue-minimisations  :  8584
 total energy-change (2. order) : 0.7312765E+00  (-0.6555787E+00)
 number of electron     127.9999984 magnetization      -0.3020396
 augmentation part       22.2434074 magnetization      -0.2880869

 Broyden mixing:
  rms(total) = 0.22693E+00    rms(broyden)= 0.22685E+00
  rms(prec ) = 0.31428E+00
  weight for this iteration     100.00

 eigenvalues of (default mixing * dielectric matrix)
  average eigenvalue GAMMA=   1.2250
  2.0495  0.9743  0.6511

 Free energy of the ion-electron system (eV)
  ---------------------------------------------------
  alpha Z        PSCENC =       650.07102411
  Ewald energy   TEWEN  =     -7863.51899147
  -Hartree energ DENC   =     -2056.71122552
  -exchange      EXHF   =         0.00000000
  -V(xc)+E(xc)   XCENC  =       371.44761134
  PAW double counting   =     10526.75067616   -10384.64791724
  entropy T*S    EENTRO =        -0.00000000
  eigenvalues    EBANDS =      -995.13203473
  atomic energy  EATOM  =      9591.82113463
  Solvation  Ediel_sol  =         0.00000000
  ---------------------------------------------------
  free energy    TOTEN  =      -159.91972272 eV

  energy without entropy =     -159.91972272  energy(sigma->0) =     -159.91972272


--------------------------------------------------------------------------------------------------------




--------------------------------------- Iteration      1(   9)  ---------------------------------------


    POTLOK:  cpu time      0.1603: real time      0.1604
    SETDIJ:  cpu time      1.2676: real time      1.2677
     EDDAV:  cpu time     12.0309: real time     12.0314
       DOS:  cpu time      0.0007: real time      0.0007
    CHARGE:  cpu time      0.4633: real time      0.4633
    MIXING:  cpu time      0.0029: real time      0.0029
    --------------------------------------------
      LOOP:  cpu time     13.9257: real time     13.9263

 eigenvalue-minimisations  :  8848
 total energy-change (2. order) :-0.6882811E-02  (-0.9065027E-01)
 number of electron     127.9999984 magnetization      -0.1747934
 augmentation part       22.0702237 magnetization      -0.1763639

 Broyden mixing:
  rms(total) = 0.94741E-01    rms(broyden)= 0.94683E-01
  rms(prec ) = 0.13403E+00
  weight for this iteration     100.00

 eigenvalues of (default mixing * dielectric matrix)
  average eigenvalue GAMMA=   1.1333
  2.0722  0.6247  0.9181  0.9181

 Free energy of the ion-electron system (eV)
  ---------------------------------------------------
  alpha Z        PSCENC =       650.07102411
  Ewald energy   TEWEN  =     -7863.51899147
  -Hartree energ DENC   =     -2049.35362473
  -exchange      EXHF   =         0.00000000
  -V(xc)+E(xc)   XCENC  =       370.99812852
  PAW double counting   =     10765.33041254   -10625.85438162
  entropy T*S    EENTRO =        -0.00000000
  eigenvalues    EBANDS =      -999.42030751
  atomic energy  EATOM  =      9591.82113463
  Solvation  Ediel_sol  =         0.00000000
  ---------------------------------------------------
  free energy    TOTEN  =      -159.92660553 eV

  energy without entropy =     -159.92660553  energy(sigma->0) =     -159.92660553


--------------------------------------------------------------------------------------------------------




--------------------------------------- Iteration      1(  10)  ---------------------------------------


    POTLOK:  cpu time      0.1597: real time      0.1597
    SETDIJ:  cpu time      1.2732: real time      1.2733
     EDDAV:  cpu time     13.2153: real time     13.2165
       DOS:  cpu time      0.0007: real time      0.0007
    CHARGE:  cpu time      0.4632: real time      0.4632
    MIXING:  cpu time      0.0029: real time      0.0029
    --------------------------------------------
      LOOP:  cpu time     15.1149: real time     15.1163

 eigenvalue-minimisations  :  9960
 total energy-change (2. order) : 0.9053329E-02  (-0.1026470E-01)
 number of electron     127.9999984 magnetization      -0.0128072
 augmentation part       22.0727060 magnetization      -0.0055515

 Broyden mixing:
  rms(total) = 0.64941E-01    rms(broyden)= 0.64939E-01
  rms(prec ) = 0.82166E-01
  weight for this iteration     100.00

 eigenvalues of (default mixing * dielectric matrix)
  average eigenvalue GAMMA=   1.1451
  2.0323  1.3569  0.9519  0.6305  0.7539

 Free energy of the ion-electron system (eV)
  ---------------------------------------------------
  alpha Z        PSCENC =       650.07102411
  Ewald energy   TEWEN  =     -7863.51899147
  -Hartree energ DENC   =     -2053.84292379
  -exchange      EXHF   =         0.00000000
  -V(xc)+E(xc)   XCENC  =       371.38824461
  PAW double counting   =     10846.77338813   -10707.90966509
  entropy T*S    EENTRO =        -0.00000000
  eigenvalues    EBANDS =      -994.69976332
  atomic energy  EATOM  =      9591.82113463
  Solvation  Ediel_sol  =         0.00000000
  ---------------------------------------------------
  free energy    TOTEN  =      -159.91755220 eV

  energy without entropy =     -159.91755220  energy(sigma->0) =     -159.91755220


--------------------------------------------------------------------------------------------------------




--------------------------------------- Iteration      1(  11)  ---------------------------------------


    POTLOK:  cpu time      0.1607: real time      0.1608
    SETDIJ:  cpu time      1.2672: real time      1.2673
     EDDAV:  cpu time     11.3856: real time     11.3869
       DOS:  cpu time      0.0006: real time      0.0006
    CHARGE:  cpu time      0.4642: real time      0.4642
    MIXING:  cpu time      0.0030: real time      0.0030
    --------------------------------------------
      LOOP:  cpu time     13.2814: real time     13.2829

 eigenvalue-minimisations  :  8260
 total energy-change (2. order) : 0.1126291E-02  (-0.3359881E-02)
 number of electron     127.9999984 magnetization       0.0040766
 augmentation part       22.0169911 magnetization       0.0025197

 Broyden mixing:
  rms(total) = 0.30906E-01    rms(broyden)= 0.30902E-01
  rms(prec ) = 0.34361E-01
  weight for this iteration     100.00

 eigenvalues of (default mixing * dielectric matrix)
  average eigenvalue GAMMA=   1.1394
  2.2646  1.5747  0.9626  0.7102  0.7102  0.6139

 Free energy of the ion-electron system (eV)
  ---------------------------------------------------
  alpha Z        PSCENC =       650.07102411
  Ewald energy   TEWEN  =     -7863.51899147
  -Hartree energ DENC   =     -2055.81037229
  -exchange      EXHF   =         0.00000000
  -V(xc)+E(xc)   XCENC  =       371.50985512
  PAW double counting   =     10876.03589500   -10737.17222119
  entropy T*S    EENTRO =        -0.00000000
  eigenvalues    EBANDS =      -992.85274981
  atomic energy  EATOM  =      9591.82113463
  Solvation  Ediel_sol  =         0.00000000
  ---------------------------------------------------
  free energy    TOTEN  =      -159.91642591 eV

  energy without entropy =     -159.91642591  energy(sigma->0) =     -159.91642591


--------------------------------------------------------------------------------------------------------




--------------------------------------- Iteration      1(  12)  ---------------------------------------


    POTLOK:  cpu time      0.1608: real time      0.1608
    SETDIJ:  cpu time      1.2710: real time      1.2711
     EDDAV:  cpu time     11.8680: real time     11.8682
       DOS:  cpu time      0.0008: real time      0.0008
    CHARGE:  cpu time      0.4652: real time      0.4652
    MIXING:  cpu time      0.0036: real time      0.0036
    --------------------------------------------
      LOOP:  cpu time     13.7694: real time     13.7696

 eigenvalue-minimisations  :  8712
 total energy-change (2. order) :-0.9817186E-03  (-0.4247738E-03)
 number of electron     127.9999984 magnetization       0.0080249
 augmentation part       22.0130793 magnetization       0.0072705

 Broyden mixing:
  rms(total) = 0.15014E-01    rms(broyden)= 0.15014E-01
  rms(prec ) = 0.17603E-01
  weight for this iteration     100.00

 eigenvalues of (default mixing * dielectric matrix)
  average eigenvalue GAMMA=   1.2433
  2.4720  1.6864  1.4709  1.0519  0.8008  0.6178  0.6030

 Free energy of the ion-electron system (eV)
  ---------------------------------------------------
  alpha Z        PSCENC =       650.07102411
  Ewald energy   TEWEN  =     -7863.51899147
  -Hartree energ DENC   =     -2056.21167227
  -exchange      EXHF   =         0.00000000
  -V(xc)+E(xc)   XCENC  =       371.55201231
  PAW double counting   =     10900.20948242   -10761.32064831
  entropy T*S    EENTRO =        -0.00000000
  eigenvalues    EBANDS =      -992.51974904
  atomic energy  EATOM  =      9591.82113463
  Solvation  Ediel_sol  =         0.00000000
  ---------------------------------------------------
  free energy    TOTEN  =      -159.91740763 eV

  energy without entropy =     -159.91740763  energy(sigma->0) =     -159.91740763


--------------------------------------------------------------------------------------------------------




--------------------------------------- Iteration      1(  13)  ---------------------------------------


    POTLOK:  cpu time      0.1646: real time      0.1646
    SETDIJ:  cpu time      1.2691: real time      1.2691
     EDDAV:  cpu time      9.6770: real time      9.6778
       DOS:  cpu time      0.0008: real time      0.0008
    CHARGE:  cpu time      0.4645: real time      0.4645
    MIXING:  cpu time      0.0040: real time      0.0041
    --------------------------------------------
      LOOP:  cpu time     11.5800: real time     11.5809

 eigenvalue-minimisations  :  6656
 total energy-change (2. order) :-0.2736070E-03  (-0.7321352E-04)
 number of electron     127.9999984 magnetization       0.0056778
 augmentation part       22.0129220 magnetization       0.0050398

 Broyden mixing:
  rms(total) = 0.46865E-02    rms(broyden)= 0.46854E-02
  rms(prec ) = 0.60386E-02
  weight for this iteration     100.00

 eigenvalues of (default mixing * dielectric matrix)
  average eigenvalue GAMMA=   1.2377
  2.5839  2.1623  1.3193  1.0833  0.7788  0.7399  0.5945  0.6394

 Free energy of the ion-electron system (eV)
  ---------------------------------------------------
  alpha Z        PSCENC =       650.07102411
  Ewald energy   TEWEN  =     -7863.51899147
  -Hartree energ DENC   =     -2056.42172177
  -exchange      EXHF   =         0.00000000
  -V(xc)+E(xc)   XCENC  =       371.56727572
  PAW double counting   =     10908.33357789   -10769.20052976
  entropy T*S    EENTRO =        -0.00000000
  eigenvalues    EBANDS =      -992.56945058
  atomic energy  EATOM  =      9591.82113463
  Solvation  Ediel_sol  =         0.00000000
  ---------------------------------------------------
  free energy    TOTEN  =      -159.91768123 eV

  energy without entropy =     -159.91768123  energy(sigma->0) =     -159.91768123


--------------------------------------------------------------------------------------------------------




--------------------------------------- Iteration      1(  14)  ---------------------------------------


    POTLOK:  cpu time      0.1612: real time      0.1612
    SETDIJ:  cpu time      1.2696: real time      1.2696
     EDDAV:  cpu time      6.0597: real time      6.0603
       DOS:  cpu time      0.0008: real time      0.0008
    --------------------------------------------
      LOOP:  cpu time      7.4912: real time      7.4919

 eigenvalue-minimisations  :  3544
 total energy-change (2. order) :-0.3715080E-04  (-0.8193446E-05)
 number of electron     127.9999984 magnetization       0.0056778
 augmentation part       22.0129220 magnetization       0.0050398

 Free energy of the ion-electron system (eV)
  ---------------------------------------------------
  alpha Z        PSCENC =       650.07102411
  Ewald energy   TEWEN  =     -7863.51899147
  -Hartree energ DENC   =     -2056.66249877
  -exchange      EXHF   =         0.00000000
  -V(xc)+E(xc)   XCENC  =       371.58522721
  PAW double counting   =     10910.22480834   -10771.01628537
  entropy T*S    EENTRO =        -0.00000000
  eigenvalues    EBANDS =      -992.42213706
  atomic energy  EATOM  =      9591.82113463
  Solvation  Ediel_sol  =         0.00000000
  ---------------------------------------------------
  free energy    TOTEN  =      -159.91771838 eV

  energy without entropy =     -159.91771838  energy(sigma->0) =     -159.91771838


--------------------------------------------------------------------------------------------------------




 average (electrostatic) potential at core
  the test charge radii are     1.1137  1.2598  0.7215
  (the norm of the test charge is              1.0000)
       1 -44.2865       2 -44.2865       3 -44.2865       4 -44.2865       5 -26.7737
       6 -26.7737       7 -26.7737       8 -26.7737       9 -71.0160      10 -71.0160
      11 -71.0160      12 -71.0160      13 -71.0002      14 -71.0002      15 -71.0002
      16 -71.0002      17 -71.0002      18 -71.0002      19 -71.0002      20 -71.0002
 
 
 
 E-fermi :   2.5901     XC(G=0): -11.1766     alpha+bet :-12.7411

 Fermi energy:         2.5901030962

 spin component 1

 k-point     1 :       0.0000    0.0000    0.0000
  band No.  band energies     occupation 
      1     -35.4547      1.00000
      2     -35.4456      1.00000
      3     -35.4358      1.00000
      4     -35.4282      1.00000
      5     -16.9757      1.00000
      6     -16.8277      1.00000
      7     -16.8072      1.00000
      8     -16.7464      1.00000
      9     -16.7240      1.00000
     10     -16.6428      1.00000
     11     -16.5373      1.00000
     12     -16.5300      1.00000
     13     -16.5021      1.00000
     14     -16.4917      1.00000
     15     -16.4913      1.00000
     16     -16.4574      1.00000
     17     -14.8162      1.00000
     18     -13.9844      1.00000
     19     -13.8403      1.00000
     20     -13.6590      1.00000
     21     -13.6328      1.00000
     22     -13.6252      1.00000
     23     -13.5869      1.00000
     24     -13.4732      1.00000
     25     -13.4310      1.00000
     26     -13.4182      1.00000
     27     -13.2061      1.00000
     28     -13.1436      1.00000
     29      -1.9675      1.00000
     30      -1.7597      1.00000
     31      -1.7458      1.00000
     32      -1.7278      1.00000
     33      -1.4994      1.00000
     34      -1.4615      1.00000
     35      -1.3885      1.00000
     36      -1.3652      1.00000
     37      -1.3396      1.00000
     38      -1.3276      1.00000
     39      -0.4551      1.00000
     40      -0.1986      1.00000
     41      -0.1540      1.00000
     42      -0.0622      1.00000
     43       0.0403      1.00000
     44       0.0986      1.00000
     45       0.1382      1.00000
     46       0.1467      1.00000
     47       0.2201      1.00000
     48       0.3424      1.00000
     49       0.4530      1.00000
     50       0.9851      1.00000
     51       1.0000      1.00000
     52       1.0347      1.00000
     53       1.4626      1.00000
     54       1.5848      1.00000
     55       1.6564      1.00000
     56       1.9868      1.00000
     57       2.0457      1.00000
     58       2.0504      1.00000
     59       2.0562      1.00000
     60       2.0610      1.00000
     61       2.2350      1.00000
     62       2.2710      1.00000
     63       2.3363      1.00000
     64       2.3486      1.00000
     65       4.5773      0.00000
     66       4.5793      0.00000
     67       4.6560      0.00000
     68       4.7864      0.00000
     69       5.8620      0.00000
     70       5.8735      0.00000
     71       6.2082      0.00000
     72       6.2160      0.00000
     73       6.2293      0.00000
     74       6.2930      0.00000
     75       6.5542      0.00000
     76       6.7891      0.00000
     77       7.3777      0.00000
     78       7.3936      0.00000
     79       7.4582      0.00000
     80       7.9772      0.00000
     81       8.9256      0.00000
     82       8.9481      0.00000
     83       9.1418      0.00000
     84       9.2707      0.00000

 k-point     2 :       0.2500   -0.0000    0.0000
  band No.  band energies     occupation 
      1     -35.4519      1.00000
      2     -35.4434      1.00000
      3     -35.4381      1.00000
      4     -35.4307      1.00000
      5     -16.9232      1.00000
      6     -16.8599      1.00000
      7     -16.7841      1.00000
      8     -16.6991      1.00000
      9     -16.6936      1.00000
     10     -16.6856      1.00000
     11     -16.6598      1.00000
     12     -16.5850      1.00000
     13     -16.5144      1.00000
     14     -16.5124      1.00000
     15     -16.5045      1.00000
     16     -16.4644      1.00000
     17     -14.5633      1.00000
     18     -13.9412      1.00000
     19     -13.8092      1.00000
     20     -13.6385      1.00000
     21     -13.6187      1.00000
     22     -13.6098      1.00000
     23     -13.5572      1.00000
     24     -13.4873      1.00000
     25     -13.4692      1.00000
     26     -13.3970      1.00000
     27     -13.2903      1.00000
     28     -13.2582      1.00000
     29      -1.7255      1.00000
     30      -1.7060      1.00000
     31      -1.6793      1.00000
     32      -1.4787      1.00000
     33      -1.4364      1.00000
     34      -1.3211      1.00000
     35      -1.2696      1.00000
     36      -1.2438      1.00000
     37      -1.1406      1.00000
     38      -1.0206      1.00000
     39      -0.7453      1.00000
     40      -0.7083      1.00000
     41      -0.3306      1.00000
     42      -0.2774      1.00000
     43      -0.2410      1.00000
     44      -0.1073      1.00000
     45      -0.0139      1.00000
     46      -0.0025      1.00000
     47       0.2506      1.00000
     48       0.6185      1.00000
     49       0.8459      1.00000
     50       1.0134      1.00000
     51       1.1779      1.00000
     52       1.1790      1.00000
     53       1.2291      1.00000
     54       1.3672      1.00000
     55       1.4215      1.00000
     56       1.5922      1.00000
     57       1.5980      1.00000
     58       1.8020      1.00000
     59       1.9344      1.00000
     60       2.0953      1.00000
     61       2.1186      1.00000
     62       2.1324      1.00000
     63       2.1433      1.00000
     64       2.2225      1.00000
     65       4.8850      0.00000
     66       4.9177      0.00000
     67       5.0631      0.00000
     68       5.1623      0.00000
     69       5.8892      0.00000
     70       5.9515      0.00000
     71       6.0269      0.00000
     72       6.2727      0.00000
     73       6.3252      0.00000
     74       6.3530      0.00000
     75       6.4434      0.00000
     76       6.6504      0.00000
     77       7.4634      0.00000
     78       7.6419      0.00000
     79       7.6544      0.00000
     80       7.8775      0.00000
     81       9.0738      0.00000
     82       9.2084      0.00000
     83       9.2385      0.00000
     84       9.4950      0.00000

 k-point     3 :       0.5000   -0.0000    0.0000
  band No.  band energies     occupation 
      1     -35.4453      1.00000
      2     -35.4453      1.00000
      3     -35.4365      1.00000
      4     -35.4365      1.00000
      5     -16.8252      1.00000
      6     -16.8252      1.00000
      7     -16.8048      1.00000
      8     -16.8048      1.00000
      9     -16.7037      1.00000
     10     -16.7037      1.00000
     11     -16.6304      1.00000
     12     -16.6304      1.00000
     13     -16.5639      1.00000
     14     -16.5639      1.00000
     15     -16.4842      1.00000
     16     -16.4842      1.00000
     17     -14.0845      1.00000
     18     -14.0845      1.00000
     19     -13.7191      1.00000
     20     -13.7191      1.00000
     21     -13.6390      1.00000
     22     -13.6390      1.00000
     23     -13.5067      1.00000
     24     -13.5067      1.00000
     25     -13.4566      1.00000
     26     -13.4566      1.00000
     27     -13.3321      1.00000
     28     -13.3321      1.00000
     29      -1.6888      1.00000
     30      -1.6888      1.00000
     31      -1.4157      1.00000
     32      -1.4157      1.00000
     33      -1.1609      1.00000
     34      -1.1609      1.00000
     35      -1.0077      1.00000
     36      -1.0077      1.00000
     37      -0.9047      1.00000
     38      -0.9047      1.00000
     39      -0.6144      1.00000
     40      -0.6144      1.00000
     41      -0.4838      1.00000
     42      -0.4838      1.00000
     43      -0.3761      1.00000
     44      -0.3761      1.00000
     45      -0.3415      1.00000
     46      -0.3415      1.00000
     47       0.3011      1.00000
     48       0.3011      1.00000
     49       0.6575      1.00000
     50       0.6575      1.00000
     51       0.9248      1.00000
     52       0.9248      1.00000
     53       1.2535      1.00000
     54       1.2535      1.00000
     55       1.6557      1.00000
     56       1.6557      1.00000
     57       1.8008      1.00000
     58       1.8008      1.00000
     59       1.8431      1.00000
     60       1.8431      1.00000
     61       1.8696      1.00000
     62       1.8696      1.00000
     63       2.0504      1.00000
     64       2.0504      1.00000
     65       5.4850      0.00000
     66       5.4850      0.00000
     67       5.5108      0.00000
     68       5.5108      0.00000
     69       5.7687      0.00000
     70       5.7687      0.00000
     71       5.9122      0.00000
     72       5.9122      0.00000
     73       6.2110      0.00000
     74       6.2110      0.00000
     75       6.4622      0.00000
     76       6.4622      0.00000
     77       7.6361      0.00000
     78       7.6361      0.00000
     79       8.7073      0.00000
     80       8.7073      0.00000
     81       8.7365      0.00000
     82       8.7365      0.00000
     83       9.4362      0.00000
     84       9.4382      0.00000

 k-point     4 :       0.0000    0.2500    0.0000
  band No.  band energies     occupation 
      1     -35.4518      1.00000
      2     -35.4431      1.00000
      3     -35.4384      1.00000
      4     -35.4308      1.00000
      5     -16.9196      1.00000
      6     -16.8102      1.00000
      7     -16.7962      1.00000
      8     -16.7198      1.00000
      9     -16.6935      1.00000
     10     -16.6840      1.00000
     11     -16.5979      1.00000
     12     -16.5790      1.00000
     13     -16.5417      1.00000
     14     -16.5258      1.00000
     15     -16.5254      1.00000
     16     -16.4685      1.00000
     17     -14.5850      1.00000
     18     -13.9325      1.00000
     19     -13.8140      1.00000
     20     -13.6567      1.00000
     21     -13.6373      1.00000
     22     -13.6228      1.00000
     23     -13.5276      1.00000
     24     -13.5087      1.00000
     25     -13.4423      1.00000
     26     -13.4157      1.00000
     27     -13.3304      1.00000
     28     -13.2175      1.00000
     29      -1.7157      1.00000
     30      -1.7148      1.00000
     31      -1.6198      1.00000
     32      -1.4841      1.00000
     33      -1.3423      1.00000
     34      -1.2935      1.00000
     35      -1.2622      1.00000
     36      -1.2184      1.00000
     37      -1.1490      1.00000
     38      -1.0939      1.00000
     39      -0.6683      1.00000
     40      -0.5758      1.00000
     41      -0.4826      1.00000
     42      -0.2570      1.00000
     43      -0.2031      1.00000
     44      -0.1455      1.00000
     45      -0.0986      1.00000
     46      -0.0104      1.00000
     47       0.3086      1.00000
     48       0.7592      1.00000
     49       0.9287      1.00000
     50       1.0327      1.00000
     51       1.1555      1.00000
     52       1.2006      1.00000
     53       1.2222      1.00000
     54       1.2814      1.00000
     55       1.3565      1.00000
     56       1.5118      1.00000
     57       1.6485      1.00000
     58       1.8213      1.00000
     59       1.8320      1.00000
     60       1.8744      1.00000
     61       1.9994      1.00000
     62       2.1920      1.00000
     63       2.2268      1.00000
     64       2.2428      1.00000
     65       4.8772      0.00000
     66       4.9271      0.00000
     67       5.1505      0.00000
     68       5.2005      0.00000
     69       5.8812      0.00000
     70       5.9615      0.00000
     71       6.0567      0.00000
     72       6.2400      0.00000
     73       6.3245      0.00000
     74       6.3486      0.00000
     75       6.4553      0.00000
     76       6.6534      0.00000
     77       7.4875      0.00000
     78       7.5661      0.00000
     79       7.6195      0.00000
     80       7.8804      0.00000
     81       9.1754      0.00000
     82       9.1794      0.00000
     83       9.1871      0.00000
     84       9.4779      0.00000

 k-point     5 :       0.2500    0.2500    0.0000
  band No.  band energies     occupation 
      1     -35.4497      1.00000
      2     -35.4418      1.00000
      3     -35.4397      1.00000
      4     -35.4325      1.00000
[...]
     70       5.9511      0.00000
     71       6.0408      0.00000
     72       6.0408      0.00000
     73       6.3222      0.00000
     74       6.3222      0.00000
     75       6.4553      0.00000
     76       6.4553      0.00000
     77       7.5526      0.00000
     78       7.5526      0.00000
     79       7.8470      0.00000
     80       7.8470      0.00000
     81       9.1460      0.00000
     82       9.1460      0.00000
     83       9.6417      0.00000
     84       9.6417      0.00000


--------------------------------------------------------------------------------------------------------


 soft charge-density along one line, spin component           1
         0         1         2         3         4         5         6         7         8         9
 total charge-density along one line
 
 soft charge-density along one line, spin component           2
         0         1         2         3         4         5         6         7         8         9
 total charge-density along one line
 
 pseudopotential strength for first ion, spin component:           1
-17.993  -4.492  -0.001   0.000  -0.001   0.001  -0.000   0.001
 -4.492  -2.170  -0.000   0.000  -0.000  -0.000   0.000  -0.000
 -0.001  -0.000 -19.147  -0.000  -0.010   6.252   0.000   0.010
  0.000   0.000  -0.000 -19.149  -0.000   0.000   6.254   0.000
 -0.001  -0.000  -0.010  -0.000 -19.143   0.010   0.000   6.249
  0.001  -0.000   6.252   0.000   0.010   8.114  -0.000  -0.004
 -0.000   0.000   0.000   6.254   0.000  -0.000   8.113  -0.000
  0.001  -0.000   0.010   0.000   6.249  -0.004  -0.000   8.115
 -0.009  -0.002   0.001   0.000   0.000  -0.002  -0.000   0.001
 -0.000  -0.000   0.000  -0.001   0.000  -0.000   0.002  -0.000
 -0.002  -0.000  -0.000   0.000   0.001   0.001  -0.000  -0.003
 -0.000  -0.000   0.000   0.000   0.000  -0.000  -0.003  -0.000
  0.002   0.000   0.001  -0.000  -0.002   0.000   0.000   0.005
 -0.012  -0.002   0.001   0.000   0.000  -0.002  -0.000   0.001
 -0.000  -0.000   0.000  -0.002   0.000  -0.000   0.003  -0.000
 -0.002  -0.000  -0.000   0.000   0.002   0.001  -0.000  -0.003
 -0.000  -0.000   0.000   0.001   0.000  -0.000  -0.003  -0.000
  0.002   0.000   0.002  -0.000  -0.003   0.000   0.000   0.005
 pseudopotential strength for first ion, spin component:           2
-17.993  -4.492  -0.001   0.000  -0.001   0.001  -0.000   0.001
 -4.492  -2.170  -0.000   0.000  -0.000  -0.000   0.000  -0.000
 -0.001  -0.000 -19.147  -0.000  -0.010   6.252   0.000   0.010
  0.000   0.000  -0.000 -19.149  -0.000   0.000   6.254   0.000
 -0.001  -0.000  -0.010  -0.000 -19.143   0.010   0.000   6.249
  0.001  -0.000   6.252   0.000   0.010   8.114  -0.000  -0.004
 -0.000   0.000   0.000   6.254   0.000  -0.000   8.113  -0.000
  0.001  -0.000   0.010   0.000   6.249  -0.004  -0.000   8.115
 -0.009  -0.002   0.001   0.000   0.000  -0.002  -0.000   0.001
 -0.000  -0.000   0.000  -0.001   0.000  -0.000   0.002  -0.000
 -0.002  -0.000  -0.000   0.000   0.001   0.001  -0.000  -0.003
 -0.000  -0.000   0.000   0.000   0.000  -0.000  -0.003  -0.000
  0.002   0.000   0.001  -0.000  -0.002   0.000   0.000   0.005
 -0.012  -0.002   0.001   0.000   0.000  -0.002  -0.000   0.001
 -0.000  -0.000   0.000  -0.002   0.000  -0.000   0.003  -0.000
 -0.002  -0.000  -0.000   0.000   0.002   0.001  -0.000  -0.003
 -0.000  -0.000   0.000   0.001   0.000  -0.000  -0.003  -0.000
  0.002   0.000   0.002  -0.000  -0.003   0.000   0.000   0.005
 total augmentation occupancy for first ion, spin component:           1
  2.001   0.001  -0.000  -0.000   0.000  -0.000  -0.000   0.000   0.002   0.000   0.000   0.000  -0.001   0.001   0.000   0.001
  0.001   0.482  -0.001   0.000   0.001  -0.000  -0.000  -0.001  -0.060  -0.000  -0.024  -0.000   0.019   0.033   0.000   0.013
 -0.000  -0.001   2.005   0.000  -0.000   0.001   0.000   0.002  -0.008  -0.000   0.005  -0.000   0.007   0.003   0.000  -0.002
 -0.000   0.000   0.000   2.005   0.000   0.000   0.002   0.000  -0.000   0.005  -0.000  -0.010   0.000   0.000  -0.001   0.000
  0.000   0.001  -0.000   0.000   2.005   0.002   0.000   0.001   0.002  -0.000  -0.010   0.000   0.013   0.000   0.000   0.003
 -0.000  -0.000   0.001   0.000   0.002   0.031   0.000  -0.004   0.020   0.000  -0.015   0.000  -0.027  -0.011  -0.000   0.008
 -0.000  -0.000   0.000   0.002   0.000   0.000   0.029   0.000   0.000  -0.013   0.000   0.030  -0.000  -0.000   0.007  -0.000
  0.000  -0.001   0.002   0.000   0.001  -0.004   0.000   0.032  -0.013   0.000   0.029  -0.000  -0.033   0.007  -0.000  -0.016
  0.002  -0.060  -0.008  -0.000   0.002   0.020   0.000  -0.013   0.267   0.000  -0.030   0.000   0.091  -0.147  -0.000   0.016
  0.000  -0.000  -0.000   0.005  -0.000   0.000  -0.013   0.000   0.000   0.360   0.000  -0.096  -0.000  -0.000  -0.201  -0.000
  0.000  -0.024   0.005  -0.000  -0.010  -0.015   0.000   0.029  -0.030   0.000   0.242   0.000  -0.030   0.016  -0.000  -0.133
  0.000  -0.000  -0.000  -0.010   0.000   0.000   0.030  -0.000   0.000  -0.096   0.000   0.316   0.000  -0.000   0.055  -0.000
 -0.001   0.019   0.007   0.000   0.013  -0.027  -0.000  -0.033   0.091  -0.000  -0.030   0.000   0.351  -0.050   0.000   0.017
  0.001   0.033   0.003   0.000   0.000  -0.011  -0.000   0.007  -0.147  -0.000   0.016  -0.000  -0.050   0.083   0.000  -0.009
  0.000   0.000   0.000  -0.001   0.000  -0.000   0.007  -0.000  -0.000  -0.201  -0.000   0.055   0.000   0.000   0.113   0.000
  0.001   0.013  -0.002   0.000   0.003   0.008  -0.000  -0.016   0.016  -0.000  -0.133  -0.000   0.017  -0.009   0.000   0.074
  0.000   0.000   0.000   0.003  -0.000   0.000  -0.017   0.000  -0.000   0.055  -0.000  -0.178  -0.000   0.000  -0.032   0.000
 -0.000  -0.011  -0.002  -0.000  -0.004   0.015   0.000   0.019  -0.050   0.000   0.017  -0.000  -0.198   0.028  -0.000  -0.010
 total augmentation occupancy for first ion, spin component:           2
 -0.000  -0.000  -0.000  -0.000   0.000  -0.000  -0.000  -0.000   0.000   0.000  -0.000  -0.000  -0.000  -0.000  -0.000  -0.000
 -0.000  -0.000  -0.000  -0.000   0.000   0.000   0.000  -0.000  -0.000   0.000  -0.000  -0.000  -0.000   0.000   0.000   0.000
 -0.000  -0.000  -0.000  -0.000   0.000  -0.000  -0.000  -0.000   0.000   0.000  -0.000   0.000   0.000   0.000   0.000   0.000
 -0.000  -0.000  -0.000  -0.000  -0.000  -0.000  -0.000  -0.000   0.000  -0.000  -0.000  -0.000   0.000   0.000  -0.000   0.000
  0.000   0.000   0.000  -0.000  -0.000   0.000  -0.000  -0.000   0.000  -0.000  -0.000   0.000   0.000   0.000   0.000   0.000
 -0.000   0.000  -0.000  -0.000   0.000  -0.000  -0.000  -0.000   0.000   0.000   0.000  -0.000  -0.000  -0.000  -0.000  -0.000
 -0.000   0.000  -0.000  -0.000  -0.000  -0.000  -0.000  -0.000  -0.000   0.000   0.000  -0.000  -0.000   0.000   0.000  -0.000
 -0.000  -0.000  -0.000  -0.000  -0.000  -0.000  -0.000  -0.000  -0.000   0.000  -0.000  -0.000  -0.000   0.000  -0.000  -0.000
  0.000  -0.000   0.000   0.000   0.000   0.000  -0.000  -0.000  -0.000  -0.000   0.000   0.000   0.000  -0.000  -0.000   0.000
  0.000   0.000   0.000  -0.000  -0.000   0.000   0.000   0.000  -0.000   0.000   0.000  -0.000  -0.000  -0.000  -0.000  -0.000
 -0.000  -0.000  -0.000  -0.000  -0.000   0.000   0.000  -0.000   0.000   0.000  -0.000   0.000  -0.000   0.000  -0.000  -0.000
 -0.000  -0.000   0.000  -0.000   0.000  -0.000  -0.000  -0.000   0.000  -0.000   0.000   0.000   0.000  -0.000   0.000   0.000
 -0.000  -0.000   0.000   0.000   0.000  -0.000  -0.000  -0.000   0.000  -0.000  -0.000   0.000   0.000  -0.000   0.000   0.000
 -0.000   0.000   0.000   0.000   0.000  -0.000   0.000   0.000  -0.000  -0.000   0.000  -0.000  -0.000   0.000   0.000  -0.000
 -0.000   0.000   0.000  -0.000   0.000  -0.000   0.000  -0.000  -0.000  -0.000  -0.000   0.000   0.000   0.000   0.000   0.000
 -0.000   0.000   0.000   0.000   0.000  -0.000  -0.000  -0.000   0.000  -0.000  -0.000   0.000   0.000  -0.000   0.000   0.000
  0.000  -0.000  -0.000   0.000  -0.000   0.000  -0.000   0.000  -0.000   0.000   0.000  -0.000  -0.000   0.000  -0.000  -0.000
  0.000  -0.000  -0.000  -0.000  -0.000   0.000   0.000   0.000  -0.000   0.000   0.000  -0.000  -0.000   0.000  -0.000  -0.000


------------------------ aborting loop because EDIFF is reached ----------------------------------------





 total charge

# of ion       s       p       d       tot
------------------------------------------
    1        2.026   5.867   0.263   8.156
    2        2.026   5.867   0.263   8.156
    3        2.026   5.867   0.263   8.156
    4        2.026   5.867   0.263   8.156
    5        0.575   1.117   2.656   4.348
    6        0.575   1.117   2.656   4.348
    7        0.575   1.117   2.656   4.348
    8        0.575   1.117   2.656   4.348
    9        1.567   3.487   0.000   5.054
   10        1.567   3.487   0.000   5.054
   11        1.567   3.487   0.000   5.054
   12        1.567   3.487   0.000   5.054
   13        1.566   3.480   0.000   5.046
   14        1.566   3.480   0.000   5.046
   15        1.566   3.480   0.000   5.046
   16        1.566   3.480   0.000   5.046
   17        1.566   3.480   0.000   5.046
   18        1.566   3.480   0.000   5.046
   19        1.566   3.480   0.000   5.046
   20        1.566   3.480   0.000   5.046
--------------------------------------------------
tot         29.203  69.726  11.676 110.605



 magnetization (x)

# of ion       s       p       d       tot
------------------------------------------
    1       -0.000   0.000  -0.000  -0.000
    2       -0.000   0.000  -0.000  -0.000
    3       -0.000   0.000  -0.000  -0.000
    4       -0.000   0.000  -0.000  -0.000
    5       -0.000  -0.000  -0.000  -0.000
    6       -0.000  -0.000  -0.000  -0.000
    7       -0.000  -0.000  -0.000  -0.000
    8       -0.000  -0.000  -0.000  -0.000
    9       -0.000   0.000   0.000   0.000
   10       -0.000   0.000   0.000   0.000
   11       -0.000   0.000   0.000   0.000
   12       -0.000   0.000   0.000   0.000
   13        0.000   0.000   0.000   0.000
   14        0.000   0.000   0.000   0.000
   15        0.000   0.000   0.000   0.000
   16        0.000   0.000   0.000   0.000
   17        0.000   0.000   0.000   0.000
   18        0.000   0.000   0.000   0.000
   19        0.000   0.000   0.000   0.000
   20        0.000   0.000   0.000   0.000
--------------------------------------------------
tot         -0.000   0.000  -0.000   0.000
 
    CHARGE:  cpu time      0.4670: real time      0.4670
    FORLOC:  cpu time      0.0146: real time      0.0146
    FORNL :  cpu time      3.3868: real time      3.3870
    STRESS:  cpu time     10.1663: real time     10.1666
    FORCOR:  cpu time      0.1720: real time      0.1720
    FORHAR:  cpu time      0.0323: real time      0.0323
    MIXING:  cpu time      0.0031: real time      0.0031
    OFIELD:  cpu time      0.0000: real time      0.0000

  FORCE on cell =-STRESS in cart. coord.  units (eV):
  Direction    XX          YY          ZZ          XY          YZ          ZX
  --------------------------------------------------------------------------------------
  Alpha Z   650.07102   650.07102   650.07102
  Ewald   -2598.96338 -2642.26338 -2622.30912     0.00000    -0.00000    -0.00000
  Hartree   693.02353   677.71930   685.98516    -0.00000    -0.00000    -0.00000
  E(xc)    -606.81194  -606.96084  -607.18231    -0.00000    -0.00000    -0.00000
  Local     -85.52713   -26.82035   -53.88030    -0.00000    -0.00000    -0.00000
  n-local  -435.48234  -434.66576  -433.36258    -0.63548     0.02017     0.01268
  augment   206.98852   206.77438   206.56230     0.00000    -0.00000     0.00000
  Kinetic  2183.96030  2183.46075  2181.65822    -0.18935    -0.04614    -0.08299
  Fock        0.00000     0.00000     0.00000     0.00000     0.00000     0.00000
  -------------------------------------------------------------------------------------
  Total       7.25858     7.31510     7.54240    -0.00000     0.00000     0.00000
  in kB      51.89445    52.29857    53.92358    -0.00000     0.00000     0.00000
  external pressure =       52.71 kB  Pullay stress =        0.00 kB


 VOLUME and BASIS-vectors are now :
 -----------------------------------------------------------------------------
  energy-cutoff  :      520.00
  volume of cell :      224.10
      direct lattice vectors                 reciprocal lattice vectors
     5.372048860  0.000000000  0.000000000     0.186148716  0.000000000  0.000000000
    -0.000000000  5.462796490  0.000000000     0.000000000  0.183056426  0.000000000
     0.000000000  0.000000000  7.636359620    -0.000000000 -0.000000000  0.130952450

  length of vectors
     5.372048860  5.462796490  7.636359620     0.186148716  0.183056426  0.130952450


 FORCES acting on ions
    electron-ion (+dipol)            ewald-force                    non-local-force                 convergence-correction
 -----------------------------------------------------------------------------------------------
   0.121E+02 0.245E+02 -.172E-06   -.122E+02 -.245E+02 -.284E-13   0.881E-01 -.334E-01 0.324E-17   -.190E-03 0.485E-03 0.290E-12
   -.121E+02 -.245E+02 0.172E-06   0.122E+02 0.245E+02 0.142E-13   -.881E-01 0.334E-01 -.322E-17   0.190E-03 -.485E-03 -.322E-12
   -.121E+02 0.245E+02 0.103E-06   0.122E+02 -.245E+02 0.711E-13   -.881E-01 -.334E-01 -.679E-17   0.190E-03 0.485E-03 0.531E-12
   0.121E+02 -.245E+02 -.103E-06   -.122E+02 0.245E+02 -.782E-13   0.881E-01 0.334E-01 0.687E-17   -.190E-03 -.485E-03 -.485E-12
   -.995E-12 -.562E-12 0.341E-11   0.213E-13 -.568E-13 -.142E-13   -.300E-23 -.786E-24 0.105E-23   0.155E-13 -.353E-13 0.212E-12
   -.239E-11 -.503E-11 -.409E-12   0.577E-14 -.688E-13 0.258E-13   0.982E-23 -.104E-23 0.380E-23   0.217E-13 -.416E-13 -.190E-12
   -.354E-11 -.103E-10 -.434E-12   -.711E-14 0.711E-14 0.533E-13   0.421E-23 0.265E-23 0.461E-23   -.416E-14 0.192E-13 0.217E-12
   -.361E-13 -.366E-11 0.117E-11   0.133E-14 -.444E-15 -.719E-13   -.481E-23 -.314E-23 -.201E-23   -.209E-14 0.170E-13 -.185E-12
   0.101E+01 -.242E+02 0.117E-05   0.928E+00 0.252E+02 -.284E-13   -.182E+01 -.980E+00 -.156E-15   -.623E-03 0.218E-03 0.268E-12
   -.101E+01 0.242E+02 -.117E-05   -.928E+00 -.252E+02 0.284E-13   0.182E+01 0.980E+00 0.156E-15   0.623E-03 -.218E-03 -.338E-12
   -.101E+01 -.242E+02 -.486E-06   -.928E+00 0.252E+02 -.711E-14   0.182E+01 -.980E+00 0.480E-16   0.623E-03 0.218E-03 0.721E-13
   0.101E+01 0.242E+02 0.486E-06   0.928E+00 -.252E+02 0.000E+00   -.182E+01 0.980E+00 -.480E-16   -.623E-03 -.218E-03 -.179E-12
   -.261E+01 0.575E+01 -.127E+02   0.408E+01 -.492E+01 0.116E+02   -.140E+01 -.769E+00 0.101E+01   -.451E-03 -.394E-03 0.676E-03
   0.261E+01 -.575E+01 -.127E+02   -.408E+01 0.492E+01 0.116E+02   0.140E+01 0.769E+00 0.101E+01   0.451E-03 0.394E-03 0.676E-03
   0.261E+01 -.575E+01 0.127E+02   -.408E+01 0.492E+01 -.116E+02   0.140E+01 0.769E+00 -.101E+01   0.451E-03 0.394E-03 -.676E-03
   -.261E+01 0.575E+01 0.127E+02   0.408E+01 -.492E+01 -.116E+02   -.140E+01 -.769E+00 -.101E+01   -.451E-03 -.394E-03 -.676E-03
   0.261E+01 0.575E+01 -.127E+02   -.408E+01 -.492E+01 0.116E+02   0.140E+01 -.769E+00 0.101E+01   0.451E-03 -.394E-03 0.676E-03
   -.261E+01 -.575E+01 -.127E+02   0.408E+01 0.492E+01 0.116E+02   -.140E+01 0.769E+00 0.101E+01   -.451E-03 0.394E-03 0.676E-03
   -.261E+01 -.575E+01 0.127E+02   0.408E+01 0.492E+01 -.116E+02   -.140E+01 0.769E+00 -.101E+01   -.451E-03 0.394E-03 -.676E-03
   0.261E+01 0.575E+01 0.127E+02   -.408E+01 -.492E+01 -.116E+02   0.140E+01 -.769E+00 -.101E+01   0.451E-03 -.394E-03 -.676E-03
 -----------------------------------------------------------------------------------------------
   -.198E-09 0.113E-08 -.818E-10   -.195E-13 0.124E-13 0.195E-13   0.222E-15 0.000E+00 0.000E+00   -.189E-12 0.212E-12 0.679E-13
 
 
 POSITION                                       TOTAL-FORCE (eV/Angst)
 -----------------------------------------------------------------------------------
      2.73473      2.96300      5.72727        -0.011859     -0.006936     -0.000000
      2.63732      2.49979      1.90909         0.011859      0.006936      0.000000
      5.32335      0.23161      5.72727         0.011859     -0.006936      0.000000
      0.04870      5.23119      1.90909        -0.011859      0.006936     -0.000000
     -0.00000      2.73140      3.81818         0.000000     -0.000000     -0.000000
     -0.00000      2.73140      0.00000         0.000000      0.000000      0.000000
      2.68602     -0.00000      3.81818         0.000000     -0.000000      0.000000
      2.68602      0.00000      0.00000         0.000000     -0.000000     -0.000000
      0.41254      2.62938      5.72727         0.115475     -0.021354      0.000000
      4.95950      2.83342      1.90909        -0.115475      0.021354     -0.000000
      2.27348      5.36078      5.72727        -0.115475     -0.021354     -0.000000
      3.09857      0.10202      1.90909         0.115475      0.021354      0.000000
      4.24554      4.31354      7.32963         0.065027      0.058834     -0.091695
      1.12651      1.14926      3.51145        -0.065027     -0.058834     -0.091695
      1.12651      1.14926      0.30673        -0.065027     -0.058834      0.091695
      4.24554      4.31354      4.12491         0.065027      0.058834      0.091695
      3.81254      1.58214      7.32963        -0.065027      0.058834     -0.091695
      1.55951      3.88066      3.51145         0.065027     -0.058834     -0.091695
      1.55951      3.88066      0.30673         0.065027     -0.058834      0.091695
      3.81254      1.58214      4.12491        -0.065027      0.058834      0.091695
 -----------------------------------------------------------------------------------
    total drift:                               -0.000000      0.000000     -0.000000


--------------------------------------------------------------------------------------------------------



  FREE ENERGIE OF THE ION-ELECTRON SYSTEM (eV)
  ---------------------------------------------------
  free  energy   TOTEN  =      -159.91783416 eV

  energy  without entropy=     -159.91783416  energy(sigma->0) =     -159.91783416
 
 d Force =-0.3026925E-02[-0.441E-02,-0.164E-02]  d Energy =-0.9851933E-01 0.955E-01
 d Force = 0.2257648E+00[ 0.223E+00, 0.228E+00]  d Ewald  = 0.6935109E+02-0.691E+02


--------------------------------------------------------------------------------------------------------


    POTLOK:  cpu time      1.4264: real time      1.4264


--------------------------------------------------------------------------------------------------------


 -----------------------------------------------------------------------------
|                                                                             |
|     EEEEEEE  RRRRRR   RRRRRR   OOOOOOO  RRRRRR      ###     ###     ###     |
|     E        R     R  R     R  O     O  R     R     ###     ###     ###     |
|     E        R     R  R     R  O     O  R     R     ###     ###     ###     |
|     EEEEE    RRRRRR   RRRRRR   O     O  RRRRRR       #       #       #      |
|     E        R   R    R   R    O     O  R   R                               |
|     E        R    R   R    R   O     O  R    R      ###     ###     ###     |
|     EEEEEEE  R     R  R     R  OOOOOOO  R     R     ###     ###     ###     |
|                                                                             |
|     ZBRENT: fatal error in bracketing                                       |
|      please rerun with smaller EDIFF, or copy CONTCAR                       |
|      to POSCAR and continue                                                 |
|                                                                             |
|       ---->  I REFUSE TO CONTINUE WITH THIS SICK JOB ... BYE!!! <----       |
|                                                                             |
 -----------------------------------------------------------------------------

