<?xml version="1.0" encoding="ISO-8859-1"?>
<modeling>
 <generator>
  <i name="program" type="string">vasp </i>
  <i name="version" type="string">6.4.1  </i>
  <i name="subversion" type="string">05Apr23 (build Jul 10 2023 10:47:07) complex                          parallel </i>
  <i name="platform" type="string">LinuxIFC </i>
  <i name="date" type="string">2025 02 17 </i>
  <i name="time" type="string">15:17:42 </i>
 </generator>
 <incar>
  <i type="string" name="PREC">Accurate</i>
  <i type="string" name="ALGO">Normal</i>
  <i type="int" name="ISPIN">     2</i>
  <i type="int" name="NELM">   500</i>
  <i type="int" name="IBRION">     2</i>
  <i name="EDIFF">      0.00010000</i>
  <i name="EDIFFG">     -0.00100000</i>
  <i type="int" name="NSW">    99</i>
  <i type="int" name="ISIF">     3</i>
  <i name="ENCUT">    520.00000000</i>
  <v name="MAGMOM">      0.60000000      0.60000000      0.60000000      0.60000000      0.60000000      0.60000000      0.60000000      0.60000000      0.60000000      0.60000000      0.60000000      0.60000000      0.60000000      0.60000000      0.60000000      0.60000000      0.60000000      0.60000000      0.60000000      0.60000000
</v>
  <i type="string" name="LREAL">Auto</i>
  <i type="int" name="ISMEAR">     0</i>
  <i name="SIGMA">      0.05000000</i>
  <i type="int" name="LMAXMIX">     4</i>
  <i type="logical" name="LWAVE"> F  </i>
  <i type="int" name="LORBIT">    11</i>
  <i type="logical" name="LASPH"> T  </i>
 </incar>
 <primitive_cell>
  <structure name="primitive_cell" >
   <crystal>
    <varray name="basis" >
     <v>       5.37204886       0.00000000       0.00000000 </v>
     <v>      -0.00000000       5.46279649       0.00000000 </v>
     <v>       0.00000000       0.00000000       7.63635962 </v>
    </varray>
    <i name="volume">    224.09973769 </i>
    <varray name="rec_basis" >
     <v>       0.18614872       0.00000000       0.00000000 </v>
     <v>       0.00000000       0.18305643       0.00000000 </v>
     <v>      -0.00000000      -0.00000000       0.13095245 </v>
    </varray>
   </crystal>
   <varray name="positions" >
    <v>       0.50906691       0.54239755       0.75000000 </v>
    <v>       0.49093309       0.45760245       0.25000000 </v>
    <v>       0.99093309       0.04239755       0.75000000 </v>
    <v>       0.00906691       0.95760245       0.25000000 </v>
    <v>       1.00000000       0.50000000       0.50000000 </v>
    <v>       1.00000000       0.50000000       0.00000000 </v>
    <v>       0.50000000       0.00000000       0.50000000 </v>
    <v>       0.50000000       0.00000000       1.00000000 </v>
    <v>       0.07678111       0.48132762       0.75000000 </v>
    <v>       0.92321889       0.51867238       0.25000000 </v>
    <v>       0.42321889       0.98132762       0.75000000 </v>
    <v>       0.57678111       0.01867238       0.25000000 </v>
    <v>       0.79029372       0.78961378       0.95984128 </v>
    <v>       0.20970628       0.21038622       0.45984128 </v>
    <v>       0.20970628       0.21038622       0.04015872 </v>
    <v>       0.79029372       0.78961378       0.54015872 </v>
    <v>       0.70970628       0.28961378       0.95984128 </v>
    <v>       0.29029372       0.71038622       0.45984128 </v>
    <v>       0.29029372       0.71038622       0.04015872 </v>
    <v>       0.70970628       0.28961378       0.54015872 </v>
   </varray>
  </structure>
  <varray name="primitive_index" >
   <v type="int" >        1 </v>
   <v type="int" >        2 </v>
   <v type="int" >        3 </v>
   <v type="int" >        4 </v>
   <v type="int" >        5 </v>
   <v type="int" >        6 </v>
   <v type="int" >        7 </v>
   <v type="int" >        8 </v>
   <v type="int" >        9 </v>
   <v type="int" >       10 </v>
   <v type="int" >       11 </v>
   <v type="int" >       12 </v>
   <v type="int" >       13 </v>
   <v type="int" >       14 </v>
   <v type="int" >       15 </v>
   <v type="int" >       16 </v>
   <v type="int" >       17 </v>
   <v type="int" >       18 </v>
   <v type="int" >       19 </v>
   <v type="int" >       20 </v>
  </varray>
 </primitive_cell>
 <kpoints>
  <generation param="Gamma">
   <v type="int" name="divisions">       4        4        3 </v>
   <v name="usershift">      0.00000000       0.00000000       0.00000000 </v>
   <v name="genvec1">      0.25000000      -0.00000000       0.00000000 </v>
   <v name="genvec2">      0.00000000       0.25000000       0.00000000 </v>
   <v name="genvec3">     -0.00000000      -0.00000000       0.33333333 </v>
   <v name="shift">      0.00000000       0.00000000       0.00000000 </v>
  </generation>
  <varray name="kpointlist" >
   <v>       0.00000000       0.00000000       0.00000000 </v>
   <v>       0.25000000      -0.00000000       0.00000000 </v>
   <v>       0.50000000      -0.00000000       0.00000000 </v>
   <v>       0.00000000       0.25000000       0.00000000 </v>
   <v>       0.25000000       0.25000000       0.00000000 </v>
   <v>       0.50000000       0.25000000       0.00000000 </v>
   <v>       0.00000000       0.50000000       0.00000000 </v>
   <v>       0.25000000       0.50000000       0.00000000 </v>
   <v>       0.50000000       0.50000000       0.00000000 </v>
   <v>       0.00000000       0.00000000       0.33333333 </v>
   <v>       0.25000000       0.00000000       0.33333333 </v>
   <v>       0.50000000       0.00000000       0.33333333 </v>
   <v>       0.00000000       0.25000000       0.33333333 </v>
   <v>       0.25000000       0.25000000       0.33333333 </v>
   <v>       0.50000000       0.25000000       0.33333333 </v>
   <v>       0.00000000       0.50000000       0.33333333 </v>
   <v>       0.25000000       0.50000000       0.33333333 </v>
   <v>       0.50000000       0.50000000       0.33333333 </v>
  </varray>
  <varray name="weights" >
   <v>       0.02083333 </v>
   <v>       0.04166667 </v>
   <v>       0.02083333 </v>
   <v>       0.04166667 </v>
   <v>       0.08333333 </v>
   <v>       0.04166667 </v>
   <v>       0.02083333 </v>
   <v>       0.04166667 </v>
   <v>       0.02083333 </v>
   <v>       0.04166667 </v>
   <v>       0.08333333 </v>
   <v>       0.04166667 </v>
   <v>       0.08333333 </v>
   <v>       0.16666667 </v>
   <v>       0.08333333 </v>
   <v>       0.04166667 </v>
   <v>       0.08333333 </v>
   <v>       0.04166667 </v>
  </varray>
 </kpoints>
 <parameters>
  <separator name="general" >
   <i type="string" name="SYSTEM">unknown system</i>
   <i type="logical" name="LCOMPAT"> F  </i>
  </separator>
  <separator name="electronic" >
   <i type="string" name="PREC">accura</i>
   <i name="ENMAX">    520.00000000</i>
   <i name="ENAUG">    605.39200000</i>
   <i name="EDIFF">      0.00010000</i>
   <i type="int" name="IALGO">    38</i>
   <i type="int" name="IWAVPR">    11</i>
   <i type="int" name="NBANDS">    84</i>
   <i type="int" name="NBANDSLOW">    -1</i>
   <i type="int" name="NBANDSHIGH">    -1</i>
   <i name="NELECT">    128.00000000</i>
   <i type="int" name="TURBO">     0</i>
   <i type="int" name="IRESTART">     0</i>
   <i type="int" name="NREBOOT">     0</i>
   <i type="int" name="NMIN">     0</i>
   <i name="EREF">      0.00000000</i>
   <separator name="electronic smearing" >
    <i type="int" name="ISMEAR">     0</i>
    <i name="SIGMA">      0.05000000</i>
    <i name="KSPACING">      0.50000000</i>
    <i type="logical" name="KGAMMA"> T  </i>
    <i type="logical" name="KBLOWUP"> T  </i>
   </separator>
   <separator name="electronic projectors" >
    <i type="logical" name="LREAL"> T  </i>
    <v name="ROPT">     -0.00025000     -0.00025000     -0.00025000</v>
    <i type="int" name="LMAXPAW">  -100</i>
    <i type="int" name="LMAXMIX">     4</i>
    <i type="logical" name="NLSPLINE"> F  </i>
   </separator>
   <separator name="electronic startup" >
    <i type="int" name="ISTART">     0</i>
    <i type="int" name="ICHARG">     2</i>
    <i type="int" name="INIWAV">     1</i>
   </separator>
   <separator name="electronic spin" >
    <i type="int" name="ISPIN">     2</i>
    <i type="logical" name="LNONCOLLINEAR"> F  </i>
    <v name="MAGMOM">      0.60000000      0.60000000      0.60000000      0.60000000      0.60000000      0.60000000      0.60000000      0.60000000      0.60000000      0.60000000      0.60000000      0.60000000      0.60000000      0.60000000      0.60000000      0.60000000      0.60000000      0.60000000      0.60000000      0.60000000
</v>
    <i name="NUPDOWN">     -1.00000000</i>
    <i type="logical" name="LSORBIT"> F  </i>
    <v name="SAXIS">      0.00000000      0.00000000      1.00000000</v>
    <i type="logical" name="LSPIRAL"> F  </i>
    <v name="QSPIRAL">      0.00000000      0.00000000      0.00000000</v>
    <i type="logical" name="LZEROZ"> F  </i>
   </separator>
   <separator name="electronic exchange-correlation" >
    <i type="logical" name="LASPH"> T  </i>
    <i type="logical" name="LMETAGGA"> F  </i>
   </separator>
   <separator name="electronic convergence" >
    <i type="int" name="NELM">   500</i>
    <i type="int" name="NELMDL">    -5</i>
    <i type="int" name="NELMIN">     2</i>
    <i name="ENINI">    520.00000000</i>
    <separator name="electronic convergence detail" >
     <i type="logical" name="LDIAG"> T  </i>
     <i type="logical" name="LSUBROT"> F  </i>
     <i name="WEIMIN">      0.00100000</i>
     <i name="EBREAK">      0.00000030</i>
     <i name="DEPER">      0.30000000</i>
     <i type="int" name="NRMM">     4</i>
     <i name="TIME">      0.40000000</i>
    </separator>
   </separator>
   <separator name="electronic mixer" >
    <i name="AMIX">      0.40000000</i>
    <i name="BMIX">      1.00000000</i>
    <i name="AMIN">      0.10000000</i>
    <i name="AMIX_MAG">      1.60000000</i>
    <i name="BMIX_MAG">      1.00000000</i>
    <separator name="electronic mixer details" >
     <i type="int" name="IMIX">     4</i>
     <i type="logical" name="MIXFIRST"> F  </i>
     <i type="int" name="MAXMIX">   -45</i>
     <i name="WC">    100.00000000</i>
     <i type="int" name="INIMIX">     1</i>
     <i type="int" name="MIXPRE">     1</i>
     <i type="int" name="MREMOVE">     5</i>
    </separator>
   </separator>
   <separator name="electronic dipolcorrection" >
    <i type="logical" name="LDIPOL"> F  </i>
    <i type="logical" name="LMONO"> F  </i>
    <i type="int" name="IDIPOL">     0</i>
    <i name="EPSILON">      1.00000000</i>
    <v name="DIPOL">   -100.00000000   -100.00000000   -100.00000000</v>
    <i name="EFIELD">      0.00000000</i>
   </separator>
  </separator>
  <separator name="grids" >
   <i type="int" name="NGX">    40</i>
   <i type="int" name="NGY">    42</i>
   <i type="int" name="NGZ">    60</i>
   <i type="int" name="NGXF">    80</i>
   <i type="int" name="NGYF">    84</i>
   <i type="int" name="NGZF">   120</i>
   <i type="logical" name="ADDGRID"> F  </i>
  </separator>
  <separator name="ionic" >
   <i type="int" name="NSW">    99</i>
   <i type="int" name="IBRION">     2</i>
   <i type="int" name="MDALGO">     0</i>
   <i type="int" name="ISIF">     3</i>
   <i name="PSTRESS">      0.00000000</i>
   <i name="EDIFFG">     -0.00100000</i>
   <i type="int" name="NFREE">     1</i>
   <i name="POTIM">      0.50000000</i>
   <i name="SMASS">     -3.00000000</i>
   <i name="SCALEE">      1.00000000</i>
  </separator>
  <separator name="ionic md" >
   <i name="TEBEG">      0.00010000</i>
   <i name="TEEND">      0.00010000</i>
   <i type="int" name="NBLOCK">     1</i>
   <i type="int" name="KBLOCK">    99</i>
   <i type="int" name="NPACO">   256</i>
   <i name="APACO">     10.00000000</i>
  </separator>
  <separator name="symmetry" >
   <i type="int" name="ISYM">     2</i>
   <i name="SYMPREC">      0.00001000</i>
  </separator>
  <separator name="dos" >
   <i type="int" name="LORBIT">    11</i>
   <v name="RWIGS">     -1.00000000     -1.00000000     -1.00000000</v>
   <i type="int" name="NEDOS">   301</i>
   <i name="EMIN">     10.00000000</i>
   <i name="EMAX">    -10.00000000</i>
   <i name="EFERMI">      0.00000000</i>
  </separator>
  <separator name="writing" >
   <i type="int" name="NWRITE">     2</i>
   <i type="logical" name="LWAVE"> F  </i>
   <i type="logical" name="LDOWNSAMPLE"> F  </i>
   <i type="logical" name="LCHARG"> T  </i>
   <i type="logical" name="LPARD"> F  </i>
   <i type="logical" name="LVTOT"> F  </i>
   <i type="logical" name="LVHAR"> F  </i>
   <i type="logical" name="LELF"> F  </i>
   <i type="logical" name="LOPTICS"> F  </i>
   <v name="STM">      0.00000000      0.00000000      0.00000000      0.00000000      0.00000000      0.00000000      0.00000000</v>
  </separator>
  <separator name="performance" >
   <i type="int" name="NPAR">     4</i>
   <i type="int" name="NSIM">     4</i>
   <i type="int" name="NBLK">    -1</i>
   <i type="logical" name="LPLANE"> T  </i>
   <i type="logical" name="LSCALAPACK"> T  </i>
   <i type="logical" name="LSCAAWARE"> F  </i>
   <i type="logical" name="LSCALU"> F  </i>
   <i type="logical" name="LASYNC"> F  </i>
   <i type="logical" name="LORBITALREAL"> F  </i>
  </separator>
  <separator name="miscellaneous" >
   <i type="int" name="IDIOT">     3</i>
   <i type="int" name="PHON_NSTRUCT">    -1</i>
   <i type="logical" name="LMUSIC"> F  </i>
   <v name="POMASS">     40.07800000     47.88000000     16.00000000</v>
   <v name="DARWINR">      0.00000000      0.00000000      0.00000000</v>
   <v name="DARWINV">      1.00000000      1.00000000      1.00000000</v>
   <i type="logical" name="LCORR"> T  </i>
  </separator>
  <i type="logical" name="GGA_COMPAT"> T  </i>
  <i type="logical" name="LBERRY"> F  </i>
  <i type="int" name="ICORELEVEL">     0</i>
  <i type="logical" name="LDAU"> F  </i>
  <i type="int" name="I_CONSTRAINED_M">     0</i>
  <separator name="electronic exchange-correlation" >
   <i type="string" name="GGA">--</i>
   <i type="int" name="VOSKOWN">     0</i>
   <i type="logical" name="LHFCALC"> F  </i>
   <i type="string" name="PRECFOCK"></i>
   <i type="logical" name="LSYMGRAD"> F  </i>
   <i type="logical" name="LHFONE"> F  </i>
   <i type="logical" name="LRHFCALC"> F  </i>
   <i type="logical" name="LTHOMAS"> F  </i>
   <i type="logical" name="LMODELHF"> F  </i>
   <i type="logical" name="LFOCKACE"> F  </i>
   <i name="ENCUT4O">     -1.00000000</i>
   <i type="int" name="EXXOEP">     0</i>
   <i type="int" name="FOURORBIT">     0</i>
   <i name="AEXX">      0.00000000</i>
   <i name="HFALPHA">      0.00000000</i>
   <i name="MCALPHA">      0.00000000</i>
   <i name="ALDAX">      1.00000000</i>
   <i name="AGGAX">      1.00000000</i>
   <i name="ALDAC">      1.00000000</i>
   <i name="AGGAC">      1.00000000</i>
   <i type="int" name="NKREDX">     1</i>
   <i type="int" name="NKREDY">     1</i>
   <i type="int" name="NKREDZ">     1</i>
   <i type="logical" name="SHIFTRED"> F  </i>
   <i type="logical" name="ODDONLY"> F  </i>
   <i type="logical" name="EVENONLY"> F  </i>
   <i type="int" name="LMAXFOCK">     0</i>
   <i type="int" name="NMAXFOCKAE">     0</i>
   <i type="logical" name="LFOCKAEDFT"> F  </i>
   <i name="HFSCREEN">      0.00000000</i>
   <i name="HFSCREENC">      0.00000000</i>
   <i type="int" name="NBANDSGWLOW">     0</i>
  </separator>
  <separator name="vdW DFT" >
   <i type="logical" name="LUSE_VDW"> F  </i>
   <i type="int" name="IVDW_NL">     1</i>
   <i type="logical" name="LSPIN_VDW"> F  </i>
   <i name="Zab_VDW">     -0.84910000</i>
   <i name="PARAM1">      0.12340000</i>
   <i name="PARAM2">      1.00000000</i>
   <i name="PARAM3">      0.00000000</i>
  </separator>
  <separator name="model GW" >
   <i type="int" name="MODEL_GW">     0</i>
   <i name="MODEL_EPS0">      6.72299213</i>
   <i name="MODEL_ALPHA">      1.00000000</i>
  </separator>
  <separator name="linear response parameters" >
   <i type="logical" name="LEPSILON"> F  </i>
   <i type="logical" name="LRPA"> F  </i>
   <i type="logical" name="LNABLA"> F  </i>
   <i type="logical" name="LVEL"> F  </i>
   <i name="CSHIFT">      0.10000000</i>
   <i name="OMEGAMAX">     -1.00000000</i>
   <i name="DEG_THRESHOLD">      0.00200000</i>
   <i name="RTIME">     -0.10000000</i>
   <i name="WPLASMAI">      0.00000000</i>
   <v name="DFIELD">      0.00000000      0.00000000      0.00000000</v>
   <v name="WPLASMA">      0.00000000      0.00000000      0.00000000      0.00000000      0.00000000      0.00000000      0.00000000      0.00000000      0.00000000</v>
  </separator>
  <separator name="orbital magnetization" >
   <i type="logical" name="NUCIND"> F  </i>
   <v name="MAGPOS">      0.00000000      0.00000000      0.00000000</v>
   <i type="logical" name="LNICSALL"> T  </i>
   <i type="logical" name="ORBITALMAG"> F  </i>
   <i type="logical" name="LMAGBLOCH"> F  </i>
   <i type="logical" name="LCHIMAG"> F  </i>
   <i type="logical" name="LGAUGE"> T  </i>
   <i type="int" name="MAGATOM">     0</i>
   <v name="MAGDIPOL">      0.00000000      0.00000000      0.00000000</v>
   <v name="AVECCONST">      0.00000000      0.00000000      0.00000000</v>
  </separator>
  <separator name="response functions" >
   <i type="logical" name="LALL_IN_ONE"> F  </i>
   <i type="int" name="IALL_IN_ONE">    -1</i>
   <i type="int" name="NBANDS_WAVE">    -1</i>
   <i type="logical" name="LFINITE_TEMPERATURE"> F  </i>
   <i type="logical" name="LADDER"> F  </i>
   <i type="logical" name="LRPAFORCE"> F  </i>
   <i type="logical" name="LFXC"> F  </i>
   <i type="logical" name="LHARTREE"> T  </i>
   <i type="int" name="IBSE">     0</i>
   <v type="int" name="KPOINT">    -1     0     0     0</v>
   <i type="logical" name="LTCTC"> F  </i>
   <i type="logical" name="LTCTE"> F  </i>
   <i type="logical" name="LTETE"> F  </i>
   <i type="logical" name="LTRIPLET"> F  </i>
   <i type="logical" name="LFXCEPS"> F  </i>
   <i type="logical" name="LFXHEG"> F  </i>
   <i type="int" name="NATURALO">     2</i>
   <i type="logical" name="LHOLEGF"> F  </i>
   <i type="logical" name="L2ORDER"> F  </i>
   <i type="logical" name="LDMP1"> F  </i>
   <i type="logical" name="LMP2LT"> F  </i>
   <i type="logical" name="LSMP2LT"> F  </i>
   <i type="logical" name="LGWLF"> F  </i>
   <i name="ENCUTGW">     -1.60000002</i>
   <i name="ENCUTGWSOFT">     -1.60000002</i>
   <i name="ENCUTLF">     -1.00000000</i>
   <i type="logical" name="LESF_SPLINES"> F  </i>
   <i type="int" name="LMAXMP2">    -1</i>
   <i name="SCISSOR">      0.00000000</i>
   <i type="int" name="NOMEGA">     0</i>
   <i type="int" name="NOMEGAR">     0</i>
   <i type="int" name="NBANDSGW">    -1</i>
   <i type="int" name="NBANDSO">    -1</i>
   <i type="int" name="NBANDSV">    -1</i>
   <i type="int" name="NELMGW">     1</i>
   <i type="int" name="NELMHF">     1</i>
   <i type="int" name="DIM">     3</i>
   <i type="int" name="IESPILON">     4</i>
   <i type="int" name="ANTIRES">     0</i>
   <i name="OMEGAMAX">    -30.00000000</i>
   <i name="OMEGAMIN">    -30.00000000</i>
   <i name="OMEGATL">   -200.00000000</i>
   <i type="int" name="OMEGAGRID">     0</i>
   <i name="CSHIFT">     -0.10000000</i>
   <i type="logical" name="LSELFENERGY"> F  </i>
   <i type="logical" name="LSPECTRAL"> F  </i>
   <i type="logical" name="LSPECTRALGW"> F  </i>
   <i type="logical" name="LSINGLES"> F  </i>
   <i type="logical" name="LFERMIGW"> F  </i>
   <i type="logical" name="ODDONLYGW"> F  </i>
   <i type="logical" name="EVENONLYGW"> F  </i>
   <i type="int" name="NKREDLFX">     1</i>
   <i type="int" name="NKREDLFY">     1</i>
   <i type="int" name="NKREDLFZ">     1</i>
   <i type="int" name="MAXMEM">  2800</i>
   <i type="int" name="TELESCOPE">     0</i>
   <i type="int" name="NTAUPAR">    -1</i>
   <i type="int" name="NOMEGAPAR">    -1</i>
   <i name="DAMP_NEWTON">      0.80000001</i>
   <i name="LAMBDA">      1.00000000</i>
  </separator>
  <separator name="External order field" >
   <i name="OFIELD_KAPPA">      0.00000000</i>
   <v name="OFIELD_K">      0.00000000      0.00000000      0.00000000</v>
   <i name="OFIELD_Q6_NEAR">      0.00000000</i>
   <i name="OFIELD_Q6_FAR">      0.00000000</i>
   <i name="OFIELD_A">      0.00000000</i>
  </separator>
  <separator name="optional k-points parameters" >
   <i type="int" name="KPOINTS_OPT_MODE">     1</i>
   <i type="logical" name="LKPOINTS_OPT"> F  </i>
  </separator>
 </parameters>
 <atominfo>
  <atoms>      20 </atoms>
  <types>       3 </types>
  <array name="atoms" >
   <dimension dim="1">ion</dimension>
   <field type="string">element</field>
   <field type="int">atomtype</field>
   <set>
    <rc><c>Ca</c><c>   1</c></rc>
    <rc><c>Ca</c><c>   1</c></rc>
    <rc><c>Ca</c><c>   1</c></rc>
    <rc><c>Ca</c><c>   1</c></rc>
    <rc><c>Ti</c><c>   2</c></rc>
    <rc><c>Ti</c><c>   2</c></rc>
    <rc><c>Ti</c><c>   2</c></rc>
    <rc><c>Ti</c><c>   2</c></rc>
    <rc><c>O </c><c>   3</c></rc>
    <rc><c>O </c><c>   3</c></rc>
    <rc><c>O </c><c>   3</c></rc>
    <rc><c>O </c><c>   3</c></rc>
    <rc><c>O </c><c>   3</c></rc>
    <rc><c>O </c><c>   3</c></rc>
    <rc><c>O </c><c>   3</c></rc>
    <rc><c>O </c><c>   3</c></rc>
    <rc><c>O </c><c>   3</c></rc>
    <rc><c>O </c><c>   3</c></rc>
    <rc><c>O </c><c>   3</c></rc>
    <rc><c>O </c><c>   3</c></rc>
   </set>
  </array>
  <array name="atomtypes" >
   <dimension dim="1">type</dimension>
   <field type="int">atomspertype</field>
   <field type="string">element</field>
   <field>mass</field>
   <field>valence</field>
   <field type="string">pseudopotential</field>
   <set>
    <rc><c>   4</c><c>Ca</c><c>     40.07800000</c><c>     10.00000000</c><c>  PAW_PBE Ca_sv 06Sep2000               </c></rc>
    <rc><c>   4</c><c>Ti</c><c>     47.88000000</c><c>      4.00000000</c><c>  PAW_PBE Ti 08Apr2002                  </c></rc>
    <rc><c>  12</c><c>O </c><c>     16.00000000</c><c>      6.00000000</c><c>  PAW_PBE O 08Apr2002                   </c></rc>
   </set>
  </array>
 </atominfo>
 <structure name="initialpos" >
  <crystal>
   <varray name="basis" >
    <v>       5.37204886       0.00000000       0.00000000 </v>
    <v>      -0.00000000       5.46279649       0.00000000 </v>
    <v>       0.00000000       0.00000000       7.63635962 </v>
   </varray>
   <i name="volume">    224.09973769 </i>
   <varray name="rec_basis" >
    <v>       0.18614872       0.00000000       0.00000000 </v>
    <v>       0.00000000       0.18305643       0.00000000 </v>
    <v>      -0.00000000      -0.00000000       0.13095245 </v>
   </varray>
  </crystal>
  <varray name="positions" >
   <v>       0.50906691       0.54239755       0.75000000 </v>
   <v>       0.49093309       0.45760245       0.25000000 </v>
   <v>       0.99093309       0.04239755       0.75000000 </v>
   <v>       0.00906691       0.95760245       0.25000000 </v>
   <v>       0.00000000       0.50000000       0.50000000 </v>
   <v>       0.00000000       0.50000000       0.00000000 </v>
   <v>       0.50000000       0.00000000       0.50000000 </v>
   <v>       0.50000000       0.00000000       0.00000000 </v>
   <v>       0.07678111       0.48132762       0.75000000 </v>
   <v>       0.92321889       0.51867238       0.25000000 </v>
   <v>       0.42321889       0.98132762       0.75000000 </v>
   <v>       0.57678111       0.01867238       0.25000000 </v>
   <v>       0.79029372       0.78961378       0.95984128 </v>
   <v>       0.20970628       0.21038622       0.45984128 </v>
   <v>       0.20970628       0.21038622       0.04015872 </v>
   <v>       0.79029372       0.78961378       0.54015872 </v>
   <v>       0.70970628       0.28961378       0.95984128 </v>
   <v>       0.29029372       0.71038622       0.45984128 </v>
   <v>       0.29029372       0.71038622       0.04015872 </v>
   <v>       0.70970628       0.28961378       0.54015872 </v>
  </varray>
 </structure>
 <calculation>
  <scstep>
   <time name="dav">    9.05    9.06</time>
   <time name="total">   10.48   10.49</time>
   <energy>
    <i name="alphaZ">    650.07102411 </i>
    <i name="ewald">  -7863.51899147 </i>
    <i name="hartreedc">  -1908.06795490 </i>
    <i name="XCdc">    357.02247046 </i>
    <i name="pawpsdc">   7644.16426458 </i>
    <i name="pawaedc">  -7463.81468790 </i>
    <i name="eentropy">     -0.00675259 </i>
    <i name="bandstr">    677.19420986 </i>
    <i name="atom">   9591.82113463 </i>
    <i name="e_fr_energy">   1684.86471678 </i>
    <i name="e_wo_entrp">   1684.87146937 </i>
    <i name="e_0_energy">   1684.86809307 </i>
   </energy>
  </scstep>
  <scstep>
   <time name="dav">    9.01    9.01</time>
   <time name="total">    9.02    9.02</time>
   <energy>
    <i name="e_fr_energy">    162.13931026 </i>
    <i name="e_wo_entrp">    162.14555607 </i>
    <i name="e_0_energy">    162.14243317 </i>
   </energy>
  </scstep>
  <scstep>
   <time name="dav">   10.53   10.53</time>
   <time name="total">   10.53   10.54</time>
   <energy>
    <i name="e_fr_energy">   -179.47044506 </i>
    <i name="e_wo_entrp">   -179.47044506 </i>
    <i name="e_0_energy">   -179.47044506 </i>
   </energy>
  </scstep>
  <scstep>
   <time name="dav">   10.91   10.91</time>
   <time name="total">   10.91   10.91</time>
   <energy>
    <i name="e_fr_energy">   -198.65810318 </i>
    <i name="e_wo_entrp">   -198.65810318 </i>
    <i name="e_0_energy">   -198.65810318 </i>
   </energy>
  </scstep>
  <scstep>
   <time name="dav">   14.92   14.92</time>
   <time name="total">   15.39   15.39</time>
   <energy>
    <i name="e_fr_energy">   -199.85983178 </i>
    <i name="e_wo_entrp">   -199.85983178 </i>
    <i name="e_0_energy">   -199.85983178 </i>
   </energy>
  </scstep>
  <scstep>
   <time name="dav">   11.83   11.83</time>
   <time name="total">   13.74   13.74</time>
   <energy>
    <i name="e_fr_energy">   -157.88399916 </i>
    <i name="e_wo_entrp">   -157.88399916 </i>
    <i name="e_0_energy">   -157.88399916 </i>
   </energy>
  </scstep>
  <scstep>
   <time name="dav">   11.73   11.73</time>
   <time name="total">   13.63   13.63</time>
   <energy>
    <i name="e_fr_energy">   -160.65099918 </i>
    <i name="e_wo_entrp">   -160.65099918 </i>
    <i name="e_0_energy">   -160.65099918 </i>
   </energy>
  </scstep>
  <scstep>
   <time name="dav">   11.75   11.75</time>
   <time name="total">   13.64   13.64</time>
   <energy>
    <i name="e_fr_energy">   -159.91972272 </i>
    <i name="e_wo_entrp">   -159.91972272 </i>
    <i name="e_0_energy">   -159.91972272 </i>
   </energy>
  </scstep>
  <scstep>
   <time name="dav">   12.03   12.03</time>
   <time name="total">   13.93   13.93</time>
   <energy>
    <i name="e_fr_energy">   -159.92660553 </i>
    <i name="e_wo_entrp">   -159.92660553 </i>
    <i name="e_0_energy">   -159.92660553 </i>
   </energy>
  </scstep>
  <scstep>
   <time name="dav">   13.22   13.22</time>
   <time name="total">   15.11   15.12</time>
   <energy>
    <i name="e_fr_energy">   -159.91755220 </i>
    <i name="e_wo_entrp">   -159.91755220 </i>
    <i name="e_0_energy">   -159.91755220 </i>
   </energy>
  </scstep>
  <scstep>
   <time name="dav">   11.39   11.39</time>
   <time name="total">   13.28   13.28</time>
   <energy>
    <i name="e_fr_energy">   -159.91642591 </i>
    <i name="e_wo_entrp">   -159.91642591 </i>
    <i name="e_0_energy">   -159.91642591 </i>
   </energy>
  </scstep>
  <scstep>
   <time name="dav">   11.87   11.87</time>
   <time name="total">   13.77   13.77</time>
   <energy>
    <i name="e_fr_energy">   -159.91740763 </i>
    <i name="e_wo_entrp">   -159.91740763 </i>
    <i name="e_0_energy">   -159.91740763 </i>
   </energy>
  </scstep>
  <scstep>
   <time name="dav">    9.68    9.68</time>
   <time name="total">   11.58   11.58</time>
   <energy>
    <i name="e_fr_energy">   -159.91768123 </i>
    <i name="e_wo_entrp">   -159.91768123 </i>
    <i name="e_0_energy">   -159.91768123 </i>
   </energy>
  </scstep>
  <scstep>
   <time name="dav">    6.06    6.06</time>
   <time name="total">    7.49    7.49</time>
   <energy>
    <i name="alphaZ">    650.07102411 </i>
    <i name="ewald">  -7863.51899147 </i>
    <i name="hartreedc">  -2056.66249877 </i>
    <i name="XCdc">    371.58522721 </i>
    <i name="pawpsdc">  10910.22480834 </i>
    <i name="pawaedc"> -10771.01628537 </i>
    <i name="eentropy">     -0.00000000 </i>
    <i name="bandstr">   -992.42213706 </i>
    <i name="atom">   9591.82113463 </i>
    <i name="e_fr_energy">   -159.91771838 </i>
    <i name="e_wo_entrp">   -159.91771838 </i>
    <i name="e_0_energy">   -159.91771838 </i>
   </energy>
  </scstep>
  <structure>
   <crystal>
    <varray name="basis" >
     <v>       5.37204886       0.00000000       0.00000000 </v>
     <v>      -0.00000000       5.46279649       0.00000000 </v>
     <v>       0.00000000       0.00000000       7.63635962 </v>
    </varray>
    <i name="volume">    224.09973769 </i>
    <varray name="rec_basis" >
     <v>       0.18614872       0.00000000       0.00000000 </v>
     <v>       0.00000000       0.18305643       0.00000000 </v>
     <v>      -0.00000000      -0.00000000       0.13095245 </v>
    </varray>
   </crystal>
   <varray name="positions" >
    <v>       0.50906691       0.54239755       0.75000000 </v>
    <v>       0.49093309       0.45760245       0.25000000 </v>
    <v>       0.99093309       0.04239755       0.75000000 </v>
    <v>       0.00906691       0.95760245       0.25000000 </v>
    <v>       0.00000000       0.50000000       0.50000000 </v>
    <v>       0.00000000       0.50000000       0.00000000 </v>
    <v>       0.50000000       0.00000000       0.50000000 </v>
    <v>       0.50000000       0.00000000       0.00000000 </v>
    <v>       0.07678111       0.48132762       0.75000000 </v>
    <v>       0.92321889       0.51867238       0.25000000 </v>
    <v>       0.42321889       0.98132762       0.75000000 </v>
    <v>       0.57678111       0.01867238       0.25000000 </v>
    <v>       0.79029372       0.78961378       0.95984128 </v>
    <v>       0.20970628       0.21038622       0.45984128 </v>
    <v>       0.20970628       0.21038622       0.04015872 </v>
    <v>       0.79029372       0.78961378       0.54015872 </v>
    <v>       0.70970628       0.28961378       0.95984128 </v>
    <v>       0.29029372       0.71038622       0.45984128 </v>
    <v>       0.29029372       0.71038622       0.04015872 </v>
    <v>       0.70970628       0.28961378       0.54015872 </v>
   </varray>
  </structure>
  <varray name="forces" >
   <v>      -0.01148540      -0.00542145      -0.00000000 </v>
   <v>       0.01148540       0.00542145      -0.00000000 </v>
   <v>       0.01148540      -0.00542145      -0.00000000 </v>
   <v>      -0.01148540       0.00542145      -0.00000000 </v>
   <v>      -0.00000000      -0.00000000      -0.00000000 </v>
   <v>       0.00000000      -0.00000000      -0.00000000 </v>
   <v>       0.00000000      -0.00000000      -0.00000000 </v>
   <v>      -0.00000000       0.00000000      -0.00000000 </v>
   <v>       0.11588237      -0.02158257       0.00000000 </v>
   <v>      -0.11588237       0.02158257      -0.00000000 </v>
   <v>      -0.11588237      -0.02158257      -0.00000000 </v>
   <v>       0.11588237       0.02158257       0.00000000 </v>
   <v>       0.06526345       0.05921040      -0.09235060 </v>
   <v>      -0.06526345      -0.05921040      -0.09235060 </v>
   <v>      -0.06526345      -0.05921040       0.09235060 </v>
   <v>       0.06526345       0.05921040       0.09235060 </v>
   <v>      -0.06526345       0.05921040      -0.09235060 </v>
   <v>       0.06526345      -0.05921040      -0.09235060 </v>
   <v>       0.06526345      -0.05921040       0.09235060 </v>
   <v>      -0.06526345       0.05921040       0.09235060 </v>
  </varray>
  <varray name="stress" >
   <v>      52.06450920      -0.00000000       0.00000000 </v>
   <v>      -0.00000000      52.48504903       0.00000000 </v>
   <v>       0.00000000       0.00000000      54.08166138 </v>
  </varray>
  <energy>
   <i name="e_fr_energy">   -159.91771838 </i>
   <i name="e_wo_entrp">   -159.91771838 </i>
   <i name="e_0_energy">   -159.91771838 </i>
  </energy>
  <time name="totalsc">  191.82  191.85</time>
 </calculation>
 <calculation>
  <scstep>
   <time name="dav">    8.67    8.67</time>
   <time name="total">   10.56   10.56</time>
   <energy>
    <i name="alphaZ">    616.48438709 </i>
    <i name="ewald">  -7725.22428862 </i>
    <i name="hartreedc">  -2021.32238990 </i>
    <i name="XCdc">    362.78569505 </i>
    <i name="pawpsdc">  10909.53820442 </i>
    <i name="pawaedc"> -10770.30643484 </i>
    <i name="eentropy">     -0.00000000 </i>
    <i name="bandstr">  -1125.98970243 </i>
    <i name="atom">   9591.82113463 </i>
    <i name="e_fr_energy">   -162.21339461 </i>
    <i name="e_wo_entrp">   -162.21339461 </i>
    <i name="e_0_energy">   -162.21339461 </i>
   </energy>
  </scstep>
  <scstep>
   <time name="dav">   11.12   11.12</time>
   <time name="total">   13.02   13.02</time>
   <energy>
    <i name="e_fr_energy">   -160.78086627 </i>
    <i name="e_wo_entrp">   -160.78086627 </i>
    <i name="e_0_energy">   -160.78086627 </i>
   </energy>
  </scstep>
  <scstep>
   <time name="dav">   10.63   10.63</time>
   <time name="total">   12.53   12.53</time>
   <energy>
    <i name="e_fr_energy">   -160.03990389 </i>
    <i name="e_wo_entrp">   -160.03990389 </i>
    <i name="e_0_energy">   -160.03990389 </i>
   </energy>
  </scstep>
  <scstep>
   <time name="dav">   11.24   11.25</time>
   <time name="total">   13.15   13.15</time>
   <energy>
    <i name="e_fr_energy">   -159.90882287 </i>
    <i name="e_wo_entrp">   -159.90882287 </i>
    <i name="e_0_energy">   -159.90882287 </i>
   </energy>
  </scstep>
  <scstep>
   <time name="dav">   13.96   13.96</time>
   <time name="total">   15.86   15.86</time>
   <energy>
    <i name="e_fr_energy">   -159.91769375 </i>
    <i name="e_wo_entrp">   -159.91769375 </i>
    <i name="e_0_energy">   -159.91769375 </i>
   </energy>
  </scstep>
  <scstep>
   <time name="dav">   11.25   11.25</time>
   <time name="total">   13.14   13.15</time>
   <energy>
    <i name="e_fr_energy">   -159.91857559 </i>
    <i name="e_wo_entrp">   -159.91857559 </i>
    <i name="e_0_energy">   -159.91857559 </i>
   </energy>
  </scstep>
  <scstep>
   <time name="dav">   12.21   12.21</time>
   <time name="total">   14.11   14.11</time>
   <energy>
    <i name="e_fr_energy">   -159.91918018 </i>
    <i name="e_wo_entrp">   -159.91918018 </i>
    <i name="e_0_energy">   -159.91918018 </i>
   </energy>
  </scstep>
  <scstep>
   <time name="dav">   10.50   10.50</time>
   <time name="total">   11.93   11.93</time>
   <energy>
    <i name="alphaZ">    616.48438709 </i>
    <i name="ewald">  -7725.22428862 </i>
    <i name="hartreedc">  -2116.09430922 </i>
    <i name="XCdc">    369.14725128 </i>
    <i name="pawpsdc">  10352.45121049 </i>
    <i name="pawaedc"> -10212.85910907 </i>
    <i name="eentropy">     -0.00000000 </i>
    <i name="bandstr">  -1035.64546994 </i>
    <i name="atom">   9591.82113463 </i>
    <i name="e_fr_energy">   -159.91919335 </i>
    <i name="e_wo_entrp">   -159.91919335 </i>
    <i name="e_0_energy">   -159.91919335 </i>
   </energy>
  </scstep>
  <structure>
   <crystal>
    <varray name="basis" >
     <v>       5.46641446      -0.00000000       0.00000000 </v>
     <v>      -0.00000000       5.55953126       0.00000000 </v>
     <v>       0.00000000       0.00000000       7.77569723 </v>
    </varray>
    <i name="volume">    236.30889774 </i>
    <varray name="rec_basis" >
     <v>       0.18293527       0.00000000      -0.00000000 </v>
     <v>       0.00000000       0.17987128      -0.00000000 </v>
     <v>      -0.00000000      -0.00000000       0.12860583 </v>
    </varray>
   </crystal>
   <varray name="positions" >
    <v>       0.50896377       0.54234967       0.75000000 </v>
    <v>       0.49103623       0.45765033       0.25000000 </v>
    <v>       0.99103623       0.04234967       0.75000000 </v>
    <v>       0.00896377       0.95765033       0.25000000 </v>
    <v>      -0.00000000       0.50000000       0.50000000 </v>
    <v>       0.00000000       0.50000000      -0.00000000 </v>
    <v>       0.50000000      -0.00000000       0.50000000 </v>
    <v>       0.50000000       0.00000000      -0.00000000 </v>
    <v>       0.07782177       0.48113702       0.75000000 </v>
    <v>       0.92217823       0.51886298       0.25000000 </v>
    <v>       0.42217823       0.98113702       0.75000000 </v>
    <v>       0.57782177       0.01886298       0.25000000 </v>
    <v>       0.79087981       0.79013667       0.95925786 </v>
    <v>       0.20912019       0.20986333       0.45925786 </v>
    <v>       0.20912019       0.20986333       0.04074214 </v>
    <v>       0.79087981       0.79013667       0.54074214 </v>
    <v>       0.70912019       0.29013667       0.95925786 </v>
    <v>       0.29087981       0.70986333       0.45925786 </v>
    <v>       0.29087981       0.70986333       0.04074214 </v>
    <v>       0.70912019       0.29013667       0.54074214 </v>
   </varray>
  </structure>
  <varray name="forces" >
   <v>      -0.00374739       0.03286339       0.00000000 </v>
   <v>       0.00374739      -0.03286339      -0.00000000 </v>
   <v>       0.00374739       0.03286339       0.00000000 </v>
   <v>      -0.00374739      -0.03286339      -0.00000000 </v>
   <v>       0.00000000      -0.00000000      -0.00000000 </v>
   <v>       0.00000000      -0.00000000       0.00000000 </v>
   <v>       0.00000000      -0.00000000       0.00000000 </v>
   <v>       0.00000000      -0.00000000       0.00000000 </v>
   <v>      -0.03824376      -0.05008350      -0.00000000 </v>
   <v>       0.03824376       0.05008350       0.00000000 </v>
   <v>       0.03824376      -0.05008350      -0.00000000 </v>
   <v>      -0.03824376       0.05008350       0.00000000 </v>
   <v>      -0.03767262      -0.00995943       0.01110630 </v>
   <v>       0.03767262       0.00995943       0.01110630 </v>
   <v>       0.03767262       0.00995943      -0.01110630 </v>
   <v>      -0.03767262      -0.00995943      -0.01110630 </v>
   <v>       0.03767262      -0.00995943       0.01110630 </v>
   <v>      -0.03767262       0.00995943       0.01110630 </v>
   <v>      -0.03767262       0.00995943      -0.01110630 </v>
   <v>       0.03767262      -0.00995943      -0.01110630 </v>
  </varray>
  <varray name="stress" >
   <v>     -49.23831220       0.00000000      -0.00000000 </v>
   <v>       0.00000000     -46.43442961      -0.00000000 </v>
   <v>      -0.00000000      -0.00000000     -48.27828350 </v>
  </varray>
  <energy>
   <i name="e_fr_energy">   -159.91919335 </i>
   <i name="e_wo_entrp">   -159.91919335 </i>
   <i name="e_0_energy">   -159.91919335 </i>
  </energy>
  <time name="totalsc">  121.93  121.94</time>
 </calculation>
 <calculation>
  <scstep>
   <time name="dav">    8.76    8.76</time>
   <time name="total">   10.72   10.72</time>
   <energy>
    <i name="alphaZ">    633.14176313 </i>
    <i name="ewald">  -7794.42369657 </i>
    <i name="hartreedc">  -2134.69475729 </i>
    <i name="XCdc">    373.61560983 </i>
    <i name="pawpsdc">  10353.24649853 </i>
    <i name="pawaedc"> -10213.64615290 </i>
    <i name="eentropy">     -0.00000000 </i>
    <i name="bandstr">   -969.67336483 </i>
    <i name="atom">   9591.82113463 </i>
    <i name="e_fr_energy">   -160.61296547 </i>
    <i name="e_wo_entrp">   -160.61296547 </i>
    <i name="e_0_energy">   -160.61296547 </i>
   </energy>
  </scstep>
  <scstep>
   <time name="dav">   11.41   11.41</time>
   <time name="total">   13.30   13.30</time>
   <energy>
    <i name="e_fr_energy">   -160.24252199 </i>
    <i name="e_wo_entrp">   -160.24252199 </i>
    <i name="e_0_energy">   -160.24252199 </i>
   </energy>
  </scstep>
  <scstep>
   <time name="dav">   10.77   10.78</time>
   <time name="total">   12.68   12.68</time>
   <energy>
    <i name="e_fr_energy">   -160.04221988 </i>
    <i name="e_wo_entrp">   -160.04221988 </i>
    <i name="e_0_energy">   -160.04221988 </i>
   </energy>
  </scstep>
  <scstep>
   <time name="dav">   12.15   12.15</time>
   <time name="total">   14.04   14.05</time>
   <energy>
    <i name="e_fr_energy">   -160.01455046 </i>
    <i name="e_wo_entrp">   -160.01455046 </i>
    <i name="e_0_energy">   -160.01455046 </i>
   </energy>
  </scstep>
  <scstep>
   <time name="dav">   12.99   12.99</time>
   <time name="total">   14.88   14.89</time>
   <energy>
    <i name="e_fr_energy">   -160.01501653 </i>
    <i name="e_wo_entrp">   -160.01501653 </i>
    <i name="e_0_energy">   -160.01501653 </i>
   </energy>
  </scstep>
  <scstep>
   <time name="dav">   12.91   12.91</time>
   <time name="total">   14.81   14.81</time>
   <energy>
    <i name="e_fr_energy">   -160.01604297 </i>
    <i name="e_wo_entrp">   -160.01604297 </i>
    <i name="e_0_energy">   -160.01604297 </i>
   </energy>
  </scstep>
  <scstep>
   <time name="dav">    9.66    9.66</time>
   <time name="total">   11.55   11.55</time>
   <energy>
    <i name="e_fr_energy">   -160.01630961 </i>
    <i name="e_wo_entrp">   -160.01630961 </i>
    <i name="e_0_energy">   -160.01630961 </i>
   </energy>
  </scstep>
  <scstep>
   <time name="dav">    5.84    5.84</time>
   <time name="total">    7.27    7.27</time>
   <energy>
    <i name="alphaZ">    633.14176313 </i>
    <i name="ewald">  -7794.42369657 </i>
    <i name="hartreedc">  -2086.13428467 </i>
    <i name="XCdc">    370.36018354 </i>
    <i name="pawpsdc">  10618.59142724 </i>
    <i name="pawaedc"> -10479.22529615 </i>
    <i name="eentropy">     -0.00000000 </i>
    <i name="bandstr">  -1014.14757403 </i>
    <i name="atom">   9591.82113463 </i>
    <i name="e_fr_energy">   -160.01634289 </i>
    <i name="e_wo_entrp">   -160.01634289 </i>
    <i name="e_0_energy">   -160.01634289 </i>
   </energy>
  </scstep>
  <structure>
   <crystal>
    <varray name="basis" >
     <v>       5.41877926      -0.00000000       0.00000000 </v>
     <v>      -0.00000000       5.51070011       0.00000000 </v>
     <v>       0.00000000       0.00000000       7.70536042 </v>
    </varray>
    <i name="volume">    230.09182851 </i>
    <varray name="rec_basis" >
     <v>       0.18454341       0.00000000      -0.00000000 </v>
     <v>       0.00000000       0.18146515      -0.00000000 </v>
     <v>      -0.00000000      -0.00000000       0.12977978 </v>
    </varray>
   </crystal>
   <varray name="positions" >
    <v>       0.50901493       0.54237342       0.75000000 </v>
    <v>       0.49098507       0.45762658       0.25000000 </v>
    <v>       0.99098507       0.04237342       0.75000000 </v>
    <v>       0.00901493       0.95762658       0.25000000 </v>
    <v>      -0.00000000       0.50000000       0.50000000 </v>
    <v>       0.00000000       0.50000000      -0.00000000 </v>
    <v>       0.50000000      -0.00000000       0.50000000 </v>
    <v>       0.50000000       0.00000000      -0.00000000 </v>
    <v>       0.07730552       0.48123156       0.75000000 </v>
    <v>       0.92269448       0.51876844       0.25000000 </v>
    <v>       0.42269448       0.98123156       0.75000000 </v>
    <v>       0.57730552       0.01876844       0.25000000 </v>
    <v>       0.79058906       0.78987731       0.95954709 </v>
    <v>       0.20941094       0.21012269       0.45954709 </v>
    <v>       0.20941094       0.21012269       0.04045291 </v>
    <v>       0.79058906       0.78987731       0.54045291 </v>
    <v>       0.70941094       0.28987731       0.95954709 </v>
    <v>       0.29058906       0.71012269       0.45954709 </v>
    <v>       0.29058906       0.71012269       0.04045291 </v>
    <v>       0.70941094       0.28987731       0.54045291 </v>
   </varray>
  </structure>
  <varray name="forces" >
   <v>      -0.00697435       0.01519802       0.00000000 </v>
   <v>       0.00697435      -0.01519802       0.00000000 </v>
   <v>       0.00697435       0.01519802       0.00000000 </v>
   <v>      -0.00697435      -0.01519802      -0.00000000 </v>
   <v>      -0.00000000       0.00000000       0.00000000 </v>
   <v>       0.00000000       0.00000000       0.00000000 </v>
   <v>       0.00000000       0.00000000       0.00000000 </v>
   <v>       0.00000000       0.00000000       0.00000000 </v>
   <v>       0.03910301      -0.03599144       0.00000000 </v>
   <v>      -0.03910301       0.03599144       0.00000000 </v>
   <v>      -0.03910301      -0.03599144      -0.00000000 </v>
   <v>       0.03910301       0.03599144       0.00000000 </v>
   <v>       0.01290327       0.02454191      -0.03999693 </v>
   <v>      -0.01290327      -0.02454191      -0.03999693 </v>
   <v>      -0.01290327      -0.02454191       0.03999693 </v>
   <v>       0.01290327       0.02454191       0.03999693 </v>
   <v>      -0.01290327       0.02454191      -0.03999693 </v>
   <v>       0.01290327      -0.02454191      -0.03999693 </v>
   <v>       0.01290327      -0.02454191       0.03999693 </v>
   <v>      -0.01290327       0.02454191       0.03999693 </v>
  </varray>
  <varray name="stress" >
   <v>      -1.19494970       0.00000000      -0.00000000 </v>
   <v>      -0.00000000       0.44187347       0.00000000 </v>
   <v>      -0.00000000       0.00000000      -0.00369590 </v>
  </varray>
  <energy>
   <i name="e_fr_energy">   -160.01634289 </i>
   <i name="e_wo_entrp">   -160.01634289 </i>
   <i name="e_0_energy">   -160.01634289 </i>
  </energy>
  <time name="totalsc">  117.17  117.17</time>
 </calculation>
 <calculation>
  <scstep>
   <time name="dav">    5.81    5.81</time>
   <time name="total">    7.70    7.70</time>
   <energy>
    <i name="alphaZ">    633.07815674 </i>
    <i name="ewald">  -7794.16178951 </i>
    <i name="hartreedc">  -2086.10311999 </i>
    <i name="XCdc">    370.34562706 </i>
    <i name="pawpsdc">  10618.48474292 </i>
    <i name="pawaedc"> -10479.10373297 </i>
    <i name="eentropy">     -0.00000000 </i>
    <i name="bandstr">  -1014.37737266 </i>
    <i name="atom">   9591.82113463 </i>
    <i name="e_fr_energy">   -160.01635378 </i>
    <i name="e_wo_entrp">   -160.01635378 </i>
    <i name="e_0_energy">   -160.01635378 </i>
   </energy>
  </scstep>
  <scstep>
   <time name="dav">    5.79    5.79</time>
   <time name="total">    7.21    7.21</time>
   <energy>
    <i name="alphaZ">    633.07815674 </i>
    <i name="ewald">  -7794.16178951 </i>
    <i name="hartreedc">  -2086.25614039 </i>
    <i name="XCdc">    370.35669176 </i>
    <i name="pawpsdc">  10618.15630072 </i>
    <i name="pawaedc"> -10478.76991835 </i>
    <i name="eentropy">     -0.00000000 </i>
    <i name="bandstr">  -1014.24078570 </i>
    <i name="atom">   9591.82113463 </i>
    <i name="e_fr_energy">   -160.01635010 </i>
    <i name="e_wo_entrp">   -160.01635010 </i>
    <i name="e_0_energy">   -160.01635010 </i>
   </energy>
  </scstep>
  <structure>
   <crystal>
    <varray name="basis" >
     <v>       5.41895796      -0.00000000       0.00000000 </v>
     <v>      -0.00000000       5.51088331       0.00000000 </v>
     <v>       0.00000000       0.00000000       7.70562430 </v>
    </varray>
    <i name="volume">    230.11494621 </i>
    <varray name="rec_basis" >
     <v>       0.18453732       0.00000000      -0.00000000 </v>
     <v>       0.00000000       0.18145911      -0.00000000 </v>
     <v>      -0.00000000      -0.00000000       0.12977534 </v>
    </varray>
   </crystal>
   <varray name="positions" >
    <v>       0.50901474       0.54237333       0.75000000 </v>
    <v>       0.49098526       0.45762667       0.25000000 </v>
    <v>       0.99098526       0.04237333       0.75000000 </v>
    <v>       0.00901474       0.95762667       0.25000000 </v>
    <v>      -0.00000000       0.50000000       0.50000000 </v>
    <v>       0.00000000       0.50000000      -0.00000000 </v>
    <v>       0.50000000      -0.00000000       0.50000000 </v>
    <v>       0.50000000       0.00000000      -0.00000000 </v>
    <v>       0.07730747       0.48123120       0.75000000 </v>
    <v>       0.92269253       0.51876880       0.25000000 </v>
    <v>       0.42269253       0.98123120       0.75000000 </v>
    <v>       0.57730747       0.01876880       0.25000000 </v>
    <v>       0.79059016       0.78987829       0.95954599 </v>
    <v>       0.20940984       0.21012171       0.45954599 </v>
    <v>       0.20940984       0.21012171       0.04045401 </v>
    <v>       0.79059016       0.78987829       0.54045401 </v>
    <v>       0.70940984       0.28987829       0.95954599 </v>
    <v>       0.29059016       0.71012171       0.45954599 </v>
    <v>       0.29059016       0.71012171       0.04045401 </v>
    <v>       0.70940984       0.28987829       0.54045401 </v>
   </varray>
  </structure>
  <varray name="forces" >
   <v>      -0.00682292       0.01523589       0.00000000 </v>
   <v>       0.00682292      -0.01523589      -0.00000000 </v>
   <v>       0.00682292       0.01523589       0.00000000 </v>
   <v>      -0.00682292      -0.01523589      -0.00000000 </v>
   <v>      -0.00000000       0.00000000      -0.00000000 </v>
   <v>       0.00000000      -0.00000000       0.00000000 </v>
   <v>       0.00000000       0.00000000       0.00000000 </v>
   <v>      -0.00000000       0.00000000      -0.00000000 </v>
   <v>       0.03868292      -0.03606009       0.00000000 </v>
   <v>      -0.03868292       0.03606009      -0.00000000 </v>
   <v>      -0.03868292      -0.03606009      -0.00000000 </v>
   <v>       0.03868292       0.03606009       0.00000000 </v>
   <v>       0.01261982       0.02434650      -0.03969981 </v>
   <v>      -0.01261982      -0.02434650      -0.03969981 </v>
   <v>      -0.01261982      -0.02434650       0.03969981 </v>
   <v>       0.01261982       0.02434650       0.03969981 </v>
   <v>      -0.01261982       0.02434650      -0.03969981 </v>
   <v>       0.01261982      -0.02434650      -0.03969981 </v>
   <v>       0.01261982      -0.02434650       0.03969981 </v>
   <v>      -0.01261982       0.02434650       0.03969981 </v>
  </varray>
  <varray name="stress" >
   <v>      -1.27226588       0.00000000      -0.00000000 </v>
   <v>       0.00000000       0.45887163       0.00000000 </v>
   <v>      -0.00000000       0.00000000      -0.01519371 </v>
  </varray>
  <energy>
   <i name="e_fr_energy">   -160.01635010 </i>
   <i name="e_wo_entrp">   -160.01635010 </i>
   <i name="e_0_energy">   -160.01635010 </i>
  </energy>
  <time name="totalsc">   32.76   32.76</time>
 </calculation>
 <calculation>
  <scstep>
   <time name="dav">    8.87    8.87</time>
   <time name="total">   10.76   10.76</time>
   <energy>
    <i name="alphaZ">    632.71629170 </i>
    <i name="ewald">  -7792.67142981 </i>
    <i name="hartreedc">  -2085.87934155 </i>
    <i name="XCdc">    370.26136973 </i>
    <i name="pawpsdc">  10617.83603249 </i>
    <i name="pawaedc"> -10478.44693238 </i>
    <i name="eentropy">     -0.00000000 </i>
    <i name="bandstr">  -1015.65371113 </i>
    <i name="atom">   9591.82113463 </i>
    <i name="e_fr_energy">   -160.01658633 </i>
    <i name="e_wo_entrp">   -160.01658633 </i>
    <i name="e_0_energy">   -160.01658633 </i>
   </energy>
  </scstep>
  <scstep>
   <time name="dav">   11.50   11.50</time>
   <time name="total">   13.39   13.39</time>
   <energy>
    <i name="e_fr_energy">   -160.01640840 </i>
    <i name="e_wo_entrp">   -160.01640840 </i>
    <i name="e_0_energy">   -160.01640840 </i>
   </energy>
  </scstep>
  <scstep>
   <time name="dav">    7.26    7.26</time>
   <time name="total">    9.16    9.16</time>
   <energy>
    <i name="e_fr_energy">   -160.01630758 </i>
    <i name="e_wo_entrp">   -160.01630758 </i>
    <i name="e_0_energy">   -160.01630758 </i>
   </energy>
  </scstep>
  <scstep>
   <time name="dav">    5.77    5.77</time>
   <time name="total">    7.19    7.19</time>
   <energy>
    <i name="alphaZ">    632.71629170 </i>
    <i name="ewald">  -7792.67142981 </i>
    <i name="hartreedc">  -2086.92500871 </i>
    <i name="XCdc">    370.33055311 </i>
    <i name="pawpsdc">  10613.05675315 </i>
    <i name="pawaedc"> -10473.61908795 </i>
    <i name="eentropy">     -0.00000000 </i>
    <i name="bandstr">  -1014.72549874 </i>
    <i name="atom">   9591.82113463 </i>
    <i name="e_fr_energy">   -160.01629264 </i>
    <i name="e_wo_entrp">   -160.01629264 </i>
    <i name="e_0_energy">   -160.01629264 </i>
   </energy>
  </scstep>
  <structure>
   <crystal>
    <varray name="basis" >
     <v>       5.41997511      -0.00000000       0.00000000 </v>
     <v>      -0.00000000       5.51192599       0.00000000 </v>
     <v>       0.00000000       0.00000000       7.70712619 </v>
    </varray>
    <i name="volume">    230.24655426 </i>
    <varray name="rec_basis" >
     <v>       0.18450269       0.00000000      -0.00000000 </v>
     <v>       0.00000000       0.18142479      -0.00000000 </v>
     <v>      -0.00000000      -0.00000000       0.12975005 </v>
    </varray>
   </crystal>
   <varray name="positions" >
    <v>       0.50901364       0.54237282       0.75000000 </v>
    <v>       0.49098636       0.45762718       0.25000000 </v>
    <v>       0.99098636       0.04237282       0.75000000 </v>
    <v>       0.00901364       0.95762718       0.25000000 </v>
    <v>      -0.00000000       0.50000000       0.50000000 </v>
    <v>       0.00000000       0.50000000      -0.00000000 </v>
    <v>       0.50000000      -0.00000000       0.50000000 </v>
    <v>       0.50000000       0.00000000      -0.00000000 </v>
    <v>       0.07731859       0.48122917       0.75000000 </v>
    <v>       0.92268141       0.51877083       0.25000000 </v>
    <v>       0.42268141       0.98122917       0.75000000 </v>
    <v>       0.57731859       0.01877083       0.25000000 </v>
    <v>       0.79059642       0.78988388       0.95953976 </v>
    <v>       0.20940358       0.21011612       0.45953976 </v>
    <v>       0.20940358       0.21011612       0.04046024 </v>
    <v>       0.79059642       0.78988388       0.54046024 </v>
    <v>       0.70940358       0.28988388       0.95953976 </v>
    <v>       0.29059642       0.71011612       0.45953976 </v>
    <v>       0.29059642       0.71011612       0.04046024 </v>
    <v>       0.70940358       0.28988388       0.54046024 </v>
   </varray>
  </structure>
  <varray name="forces" >
   <v>      -0.00676195       0.01574742       0.00000000 </v>
   <v>       0.00676195      -0.01574742      -0.00000000 </v>
   <v>       0.00676195       0.01574742       0.00000000 </v>
   <v>      -0.00676195      -0.01574742      -0.00000000 </v>
   <v>       0.00000000      -0.00000000      -0.00000000 </v>
   <v>       0.00000000      -0.00000000      -0.00000000 </v>
   <v>       0.00000000      -0.00000000      -0.00000000 </v>
   <v>       0.00000000      -0.00000000       0.00000000 </v>
   <v>       0.03798211      -0.03717744       0.00000000 </v>
   <v>      -0.03798211       0.03717744      -0.00000000 </v>
   <v>      -0.03798211      -0.03717744      -0.00000000 </v>
   <v>       0.03798211       0.03717744       0.00000000 </v>
   <v>       0.01198335       0.02399797      -0.03894995 </v>
   <v>      -0.01198335      -0.02399797      -0.03894995 </v>
   <v>      -0.01198335      -0.02399797       0.03894995 </v>
   <v>       0.01198335       0.02399797       0.03894995 </v>
   <v>      -0.01198335       0.02399797      -0.03894995 </v>
   <v>       0.01198335      -0.02399797      -0.03894995 </v>
   <v>       0.01198335      -0.02399797       0.03894995 </v>
   <v>      -0.01198335       0.02399797       0.03894995 </v>
  </varray>
  <varray name="stress" >
   <v>      -2.37079688       0.00000000      -0.00000000 </v>
   <v>       0.00000000      -0.59836254      -0.00000000 </v>
   <v>      -0.00000000      -0.00000000      -1.06709762 </v>
  </varray>
  <energy>
   <i name="e_fr_energy">   -160.01629264 </i>
   <i name="e_wo_entrp">   -160.01629264 </i>
   <i name="e_0_energy">   -160.01629264 </i>
  </energy>
  <time name="totalsc">   58.59   58.59</time>
 </calculation>
 <calculation>
  <scstep>
   <time name="dav">    8.86    8.86</time>
   <time name="total">   10.74   10.74</time>
   <energy>
    <i name="alphaZ">    633.02481357 </i>
    <i name="ewald">  -7793.94212805 </i>
    <i name="hartreedc">  -2087.34270472 </i>
    <i name="XCdc">    370.41733309 </i>
    <i name="pawpsdc">  10612.22906480 </i>
    <i name="pawaedc"> -10472.77881242 </i>
    <i name="eentropy">     -0.00000000 </i>
    <i name="bandstr">  -1013.44524484 </i>
    <i name="atom">   9591.82113463 </i>
    <i name="e_fr_energy">   -160.01654394 </i>
    <i name="e_wo_entrp">   -160.01654394 </i>
    <i name="e_0_energy">   -160.01654394 </i>
   </energy>
  </scstep>
  <scstep>
   <time name="dav">   10.99   10.99</time>
   <time name="total">   12.88   12.88</time>
   <energy>
    <i name="e_fr_energy">   -160.01642433 </i>
    <i name="e_wo_entrp">   -160.01642433 </i>
    <i name="e_0_energy">   -160.01642433 </i>
   </energy>
  </scstep>
  <scstep>
   <time name="dav">    6.93    6.93</time>
   <time name="total">    8.35    8.35</time>
   <energy>
    <i name="alphaZ">    633.02481357 </i>
    <i name="ewald">  -7793.94212805 </i>
    <i name="hartreedc">  -2086.61433805 </i>
    <i name="XCdc">    370.36763843 </i>
    <i name="pawpsdc">  10614.74247519 </i>
    <i name="pawaedc"> -10475.30227594 </i>
    <i name="eentropy">     -0.00000000 </i>
    <i name="bandstr">  -1014.11367380 </i>
    <i name="atom">   9591.82113463 </i>
    <i name="e_fr_energy">   -160.01635402 </i>
    <i name="e_wo_entrp">   -160.01635402 </i>
    <i name="e_0_energy">   -160.01635402 </i>
   </energy>
  </scstep>
  <structure>
   <crystal>
    <varray name="basis" >
     <v>       5.41910786      -0.00000000       0.00000000 </v>
     <v>      -0.00000000       5.51103696       0.00000000 </v>
     <v>       0.00000000       0.00000000       7.70584562 </v>
    </varray>
    <i name="volume">    230.13433733 </i>
    <varray name="rec_basis" >
     <v>       0.18453222       0.00000000      -0.00000000 </v>
     <v>       0.00000000       0.18145405      -0.00000000 </v>
     <v>      -0.00000000      -0.00000000       0.12977161 </v>
    </varray>
   </crystal>
   <varray name="positions" >
    <v>       0.50901458       0.54237325       0.75000000 </v>
    <v>       0.49098542       0.45762675       0.25000000 </v>
    <v>       0.99098542       0.04237325       0.75000000 </v>
    <v>       0.00901458       0.95762675       0.25000000 </v>
    <v>      -0.00000000       0.50000000       0.50000000 </v>
    <v>       0.00000000       0.50000000      -0.00000000 </v>
    <v>       0.50000000      -0.00000000       0.50000000 </v>
    <v>       0.50000000       0.00000000      -0.00000000 </v>
    <v>       0.07730911       0.48123090       0.75000000 </v>
    <v>       0.92269089       0.51876910       0.25000000 </v>
    <v>       0.42269089       0.98123090       0.75000000 </v>
    <v>       0.57730911       0.01876910       0.25000000 </v>
    <v>       0.79059108       0.78987912       0.95954507 </v>
    <v>       0.20940892       0.21012088       0.45954507 </v>
    <v>       0.20940892       0.21012088       0.04045493 </v>
    <v>       0.79059108       0.78987912       0.54045493 </v>
    <v>       0.70940892       0.28987912       0.95954507 </v>
    <v>       0.29059108       0.71012088       0.45954507 </v>
    <v>       0.29059108       0.71012088       0.04045493 </v>
    <v>       0.70940892       0.28987912       0.54045493 </v>
   </varray>
  </structure>
  <varray name="forces" >
   <v>      -0.00701973       0.01492727       0.00000000 </v>
   <v>       0.00701973      -0.01492727      -0.00000000 </v>
   <v>       0.00701973       0.01492727       0.00000000 </v>
   <v>      -0.00701973      -0.01492727      -0.00000000 </v>
   <v>      -0.00000000       0.00000000      -0.00000000 </v>
   <v>      -0.00000000       0.00000000       0.00000000 </v>
   <v>      -0.00000000       0.00000000       0.00000000 </v>
   <v>      -0.00000000       0.00000000      -0.00000000 </v>
   <v>       0.03879193      -0.03583651       0.00000000 </v>
   <v>      -0.03879193       0.03583651      -0.00000000 </v>
   <v>      -0.03879193      -0.03583651      -0.00000000 </v>
   <v>       0.03879193       0.03583651       0.00000000 </v>
   <v>       0.01277200       0.02424672      -0.03931079 </v>
   <v>      -0.01277200      -0.02424672      -0.03931079 </v>
   <v>      -0.01277200      -0.02424672       0.03931079 </v>
   <v>       0.01277200       0.02424672       0.03931079 </v>
   <v>      -0.01277200       0.02424672      -0.03931079 </v>
   <v>       0.01277200      -0.02424672      -0.03931079 </v>
   <v>       0.01277200      -0.02424672       0.03931079 </v>
   <v>      -0.01277200       0.02424672       0.03931079 </v>
  </varray>
  <varray name="stress" >
   <v>      -2.37141548      -0.00000000      -0.00000000 </v>
   <v>       0.00000000      -0.66102100      -0.00000000 </v>
   <v>      -0.00000000      -0.00000000      -1.13300895 </v>
  </varray>
  <energy>
   <i name="e_fr_energy">   -160.01635402 </i>
   <i name="e_wo_entrp">   -160.01635402 </i>
   <i name="e_0_energy">   -160.01635402 </i>
  </energy>
  <time name="totalsc">   50.00   50.00</time>
 </calculation>
 <calculation>
  <scstep>
   <time name="dav">    5.70    5.70</time>
   <time name="total">    7.59    7.59</time>
   <energy>
    <i name="alphaZ">    633.07054920 </i>
    <i name="ewald">  -7794.13046249 </i>
    <i name="hartreedc">  -2086.53424758 </i>
    <i name="XCdc">    370.37234005 </i>
    <i name="pawpsdc">  10615.68706464 </i>
    <i name="pawaedc"> -10476.26696261 </i>
    <i name="eentropy">     -0.00000000 </i>
    <i name="bandstr">  -1014.03577273 </i>
    <i name="atom">   9591.82113463 </i>
    <i name="e_fr_energy">   -160.01635690 </i>
    <i name="e_wo_entrp">   -160.01635690 </i>
    <i name="e_0_energy">   -160.01635690 </i>
   </energy>
  </scstep>
  <scstep>
   <time name="dav">    5.71    5.71</time>
   <time name="total">    7.14    7.14</time>
   <energy>
    <i name="alphaZ">    633.07054920 </i>
    <i name="ewald">  -7794.13046249 </i>
    <i name="hartreedc">  -2086.37335925 </i>
    <i name="XCdc">    370.36064366 </i>
    <i name="pawpsdc">  10616.40311135 </i>
    <i name="pawaedc"> -10476.98817674 </i>
    <i name="eentropy">     -0.00000000 </i>
    <i name="bandstr">  -1014.17979046 </i>
    <i name="atom">   9591.82113463 </i>
    <i name="e_fr_energy">   -160.01635010 </i>
    <i name="e_wo_entrp">   -160.01635010 </i>
    <i name="e_0_energy">   -160.01635010 </i>
   </energy>
  </scstep>
  <structure>
   <crystal>
    <varray name="basis" >
     <v>       5.41897934      -0.00000000       0.00000000 </v>
     <v>      -0.00000000       5.51090522       0.00000000 </v>
     <v>       0.00000000       0.00000000       7.70565586 </v>
    </varray>
    <i name="volume">    230.11771148 </i>
    <varray name="rec_basis" >
     <v>       0.18453660       0.00000000      -0.00000000 </v>
     <v>       0.00000000       0.18145839      -0.00000000 </v>
     <v>      -0.00000000      -0.00000000       0.12977481 </v>
    </varray>
   </crystal>
   <varray name="positions" >
    <v>       0.50901472       0.54237332       0.75000000 </v>
    <v>       0.49098528       0.45762668       0.25000000 </v>
    <v>       0.99098528       0.04237332       0.75000000 </v>
    <v>       0.00901472       0.95762668       0.25000000 </v>
    <v>      -0.00000000       0.50000000       0.50000000 </v>
    <v>       0.00000000       0.50000000      -0.00000000 </v>
    <v>       0.50000000      -0.00000000       0.50000000 </v>
    <v>       0.50000000       0.00000000      -0.00000000 </v>
    <v>       0.07730771       0.48123116       0.75000000 </v>
    <v>       0.92269229       0.51876884       0.25000000 </v>
    <v>       0.42269229       0.98123116       0.75000000 </v>
    <v>       0.57730771       0.01876884       0.25000000 </v>
    <v>       0.79059029       0.78987841       0.95954586 </v>
    <v>       0.20940971       0.21012159       0.45954586 </v>
    <v>       0.20940971       0.21012159       0.04045414 </v>
    <v>       0.79059029       0.78987841       0.54045414 </v>
    <v>       0.70940971       0.28987841       0.95954586 </v>
    <v>       0.29059029       0.71012159       0.45954586 </v>
    <v>       0.29059029       0.71012159       0.04045414 </v>
    <v>       0.70940971       0.28987841       0.54045414 </v>
   </varray>
  </structure>
  <varray name="forces" >
   <v>      -0.00697346       0.01519784       0.00000000 </v>
   <v>       0.00697346      -0.01519784      -0.00000000 </v>
   <v>       0.00697346       0.01519784       0.00000000 </v>
   <v>      -0.00697346      -0.01519784      -0.00000000 </v>
   <v>       0.00000000       0.00000000      -0.00000000 </v>
   <v>       0.00000000       0.00000000      -0.00000000 </v>
   <v>      -0.00000000       0.00000000      -0.00000000 </v>
   <v>       0.00000000       0.00000000      -0.00000000 </v>
   <v>       0.03880306      -0.03603769      -0.00000000 </v>
   <v>      -0.03880306       0.03603769      -0.00000000 </v>
   <v>      -0.03880306      -0.03603769      -0.00000000 </v>
   <v>       0.03880306       0.03603769       0.00000000 </v>
   <v>       0.01269274       0.02441233      -0.03976980 </v>
   <v>      -0.01269274      -0.02441233      -0.03976980 </v>
   <v>      -0.01269274      -0.02441233       0.03976980 </v>
   <v>       0.01269274       0.02441233       0.03976980 </v>
   <v>      -0.01269274       0.02441233      -0.03976980 </v>
   <v>       0.01269274      -0.02441233      -0.03976980 </v>
   <v>       0.01269274      -0.02441233       0.03976980 </v>
   <v>      -0.01269274       0.02441233       0.03976980 </v>
  </varray>
  <varray name="stress" >
   <v>      -2.11030166       0.00000000      -0.00000000 </v>
   <v>       0.00000000      -0.38835672      -0.00000000 </v>
   <v>      -0.00000000      -0.00000000      -0.86779642 </v>
  </varray>
  <energy>
   <i name="e_fr_energy">   -160.01635010 </i>
   <i name="e_wo_entrp">   -160.01635010 </i>
   <i name="e_0_energy">   -160.01635010 </i>
  </energy>
  <time name="totalsc">   32.68   32.69</time>
 </calculation>
 <calculation>
  <scstep>
   <time name="dav">    5.62    5.62</time>
   <time name="total">    7.50    7.50</time>
   <energy>
    <i name="alphaZ">    633.07672657 </i>
    <i name="ewald">  -7794.15589955 </i>
    <i name="hartreedc">  -2086.37065868 </i>
    <i name="XCdc">    370.36261470 </i>
    <i name="pawpsdc">  10616.91563204 </i>
    <i name="pawaedc"> -10477.50129840 </i>
    <i name="eentropy">     -0.00000000 </i>
    <i name="bandstr">  -1014.16460107 </i>
    <i name="atom">   9591.82113463 </i>
    <i name="e_fr_energy">   -160.01634976 </i>
    <i name="e_wo_entrp">   -160.01634976 </i>
    <i name="e_0_energy">   -160.01634976 </i>
   </energy>
  </scstep>
  <scstep>
   <time name="dav">    5.57    5.57</time>
   <time name="total">    6.99    6.99</time>
   <energy>
    <i name="alphaZ">    633.07672657 </i>
    <i name="ewald">  -7794.15589955 </i>
    <i name="hartreedc">  -2086.33099673 </i>
    <i name="XCdc">    370.35979200 </i>
    <i name="pawpsdc">  10617.11766922 </i>
    <i name="pawaedc"> -10477.70512095 </i>
    <i name="eentropy">     -0.00000000 </i>
    <i name="bandstr">  -1014.19965535 </i>
    <i name="atom">   9591.82113463 </i>
    <i name="e_fr_energy">   -160.01635016 </i>
    <i name="e_wo_entrp">   -160.01635016 </i>
    <i name="e_0_energy">   -160.01635016 </i>
   </energy>
  </scstep>
  <structure>
   <crystal>
    <varray name="basis" >
     <v>       5.41896198      -0.00000000       0.00000000 </v>
     <v>      -0.00000000       5.51088743       0.00000000 </v>
     <v>       0.00000000       0.00000000       7.70563023 </v>
    </varray>
    <i name="volume">    230.11546606 </i>
    <varray name="rec_basis" >
     <v>       0.18453719       0.00000000      -0.00000000 </v>
     <v>       0.00000000       0.18145898      -0.00000000 </v>
     <v>      -0.00000000      -0.00000000       0.12977524 </v>
    </varray>
   </crystal>
   <varray name="positions" >
    <v>       0.50901474       0.54237333       0.75000000 </v>
    <v>       0.49098526       0.45762667       0.25000000 </v>
    <v>       0.99098526       0.04237333       0.75000000 </v>
    <v>       0.00901474       0.95762667       0.25000000 </v>
    <v>      -0.00000000       0.50000000       0.50000000 </v>
    <v>       0.00000000       0.50000000      -0.00000000 </v>
    <v>       0.50000000      -0.00000000       0.50000000 </v>
    <v>       0.50000000       0.00000000      -0.00000000 </v>
    <v>       0.07730752       0.48123119       0.75000000 </v>
    <v>       0.92269248       0.51876881       0.25000000 </v>
    <v>       0.42269248       0.98123119       0.75000000 </v>
    <v>       0.57730752       0.01876881       0.25000000 </v>
    <v>       0.79059019       0.78987832       0.95954597 </v>
    <v>       0.20940981       0.21012168       0.45954597 </v>
    <v>       0.20940981       0.21012168       0.04045403 </v>
    <v>       0.79059019       0.78987832       0.54045403 </v>
    <v>       0.70940981       0.28987832       0.95954597 </v>
    <v>       0.29059019       0.71012168       0.45954597 </v>
    <v>       0.29059019       0.71012168       0.04045403 </v>
    <v>       0.70940981       0.28987832       0.54045403 </v>
   </varray>
  </structure>
  <varray name="forces" >
   <v>      -0.00691023       0.01518534       0.00000000 </v>
   <v>       0.00691023      -0.01518534      -0.00000000 </v>
   <v>       0.00691023       0.01518534       0.00000000 </v>
   <v>      -0.00691023      -0.01518534      -0.00000000 </v>
   <v>      -0.00000000       0.00000000       0.00000000 </v>
   <v>      -0.00000000      -0.00000000       0.00000000 </v>
   <v>      -0.00000000       0.00000000      -0.00000000 </v>
   <v>      -0.00000000      -0.00000000       0.00000000 </v>
   <v>       0.03918329      -0.03614110       0.00000000 </v>
   <v>      -0.03918329       0.03614110      -0.00000000 </v>
   <v>      -0.03918329      -0.03614110      -0.00000000 </v>
   <v>       0.03918329       0.03614110       0.00000000 </v>
   <v>       0.01290540       0.02461706      -0.04009087 </v>
   <v>      -0.01290540      -0.02461706      -0.04009087 </v>
   <v>      -0.01290540      -0.02461706       0.04009087 </v>
   <v>       0.01290540       0.02461706       0.04009087 </v>
   <v>      -0.01290540       0.02461706      -0.04009087 </v>
   <v>       0.01290540      -0.02461706      -0.04009087 </v>
   <v>       0.01290540      -0.02461706       0.04009087 </v>
   <v>      -0.01290540       0.02461706       0.04009087 </v>
  </varray>
  <varray name="stress" >
   <v>      -1.79490529      -0.00000000      -0.00000000 </v>
   <v>      -0.00000000      -0.06879666      -0.00000000 </v>
   <v>      -0.00000000       0.00000000      -0.54911247 </v>
  </varray>
  <energy>
   <i name="e_fr_energy">   -160.01635016 </i>
   <i name="e_wo_entrp">   -160.01635016 </i>
   <i name="e_0_energy">   -160.01635016 </i>
  </energy>
  <time name="totalsc">   32.50   32.50</time>
 </calculation>
 <calculation>
  <scstep>
   <time name="dav">    5.57    5.57</time>
   <time name="total">    7.47    7.47</time>
   <energy>
    <i name="alphaZ">    633.07772245 </i>
    <i name="ewald">  -7794.16000034 </i>
    <i name="hartreedc">  -2086.33063594 </i>
    <i name="XCdc">    370.36010401 </i>
    <i name="pawpsdc">  10617.23499221 </i>
    <i name="pawaedc"> -10477.82237015 </i>
    <i name="eentropy">     -0.00000000 </i>
    <i name="bandstr">  -1014.19729746 </i>
    <i name="atom">   9591.82113463 </i>
    <i name="e_fr_energy">   -160.01635060 </i>
    <i name="e_wo_entrp">   -160.01635060 </i>
    <i name="e_0_energy">   -160.01635060 </i>
   </energy>
  </scstep>
  <scstep>
   <time name="dav">    5.59    5.59</time>
   <time name="total">    7.02    7.02</time>
   <energy>
    <i name="alphaZ">    633.07772245 </i>
    <i name="ewald">  -7794.16000034 </i>
    <i name="hartreedc">  -2086.32634298 </i>
    <i name="XCdc">    370.35988148 </i>
    <i name="pawpsdc">  10617.36169477 </i>
    <i name="pawaedc"> -10477.94874231 </i>
    <i name="eentropy">     -0.00000000 </i>
    <i name="bandstr">  -1014.20169900 </i>
    <i name="atom">   9591.82113463 </i>
    <i name="e_fr_energy">   -160.01635130 </i>
    <i name="e_wo_entrp">   -160.01635130 </i>
    <i name="e_0_energy">   -160.01635130 </i>
   </energy>
  </scstep>
  <structure>
   <crystal>
    <varray name="basis" >
     <v>       5.41895919      -0.00000000       0.00000000 </v>
     <v>      -0.00000000       5.51088456       0.00000000 </v>
     <v>       0.00000000       0.00000000       7.70562610 </v>
    </varray>
    <i name="volume">    230.11510407 </i>
    <varray name="rec_basis" >
     <v>       0.18453728       0.00000000      -0.00000000 </v>
     <v>       0.00000000       0.18145907      -0.00000000 </v>
     <v>      -0.00000000      -0.00000000       0.12977531 </v>
    </varray>
   </crystal>
   <varray name="positions" >
    <v>       0.50901474       0.54237333       0.75000000 </v>
    <v>       0.49098526       0.45762667       0.25000000 </v>
    <v>       0.99098526       0.04237333       0.75000000 </v>
    <v>       0.00901474       0.95762667       0.25000000 </v>
    <v>      -0.00000000       0.50000000       0.50000000 </v>
    <v>       0.00000000       0.50000000      -0.00000000 </v>
    <v>       0.50000000      -0.00000000       0.50000000 </v>
    <v>       0.50000000       0.00000000      -0.00000000 </v>
    <v>       0.07730749       0.48123120       0.75000000 </v>
    <v>       0.92269251       0.51876880       0.25000000 </v>
    <v>       0.42269251       0.98123120       0.75000000 </v>
    <v>       0.57730749       0.01876880       0.25000000 </v>
    <v>       0.79059017       0.78987830       0.95954598 </v>
    <v>       0.20940983       0.21012170       0.45954598 </v>
    <v>       0.20940983       0.21012170       0.04045402 </v>
    <v>       0.79059017       0.78987830       0.54045402 </v>
    <v>       0.70940983       0.28987830       0.95954598 </v>
    <v>       0.29059017       0.71012170       0.45954598 </v>
    <v>       0.29059017       0.71012170       0.04045402 </v>
    <v>       0.70940983       0.28987830       0.54045402 </v>
   </varray>
  </structure>
  <varray name="forces" >
   <v>      -0.00688253       0.01523109       0.00000000 </v>
   <v>       0.00688253      -0.01523109      -0.00000000 </v>
   <v>       0.00688253       0.01523109       0.00000000 </v>
   <v>      -0.00688253      -0.01523109      -0.00000000 </v>
   <v>      -0.00000000      -0.00000000       0.00000000 </v>
   <v>       0.00000000      -0.00000000       0.00000000 </v>
   <v>       0.00000000      -0.00000000       0.00000000 </v>
   <v>      -0.00000000      -0.00000000       0.00000000 </v>
   <v>       0.03892133      -0.03615865       0.00000000 </v>
   <v>      -0.03892133       0.03615865       0.00000000 </v>
   <v>      -0.03892133      -0.03615865      -0.00000000 </v>
   <v>       0.03892133       0.03615865       0.00000000 </v>
   <v>       0.01273884       0.02447878      -0.03988627 </v>
   <v>      -0.01273884      -0.02447878      -0.03988627 </v>
   <v>      -0.01273884      -0.02447878       0.03988627 </v>
   <v>       0.01273884       0.02447878       0.03988627 </v>
   <v>      -0.01273884       0.02447878      -0.03988627 </v>
   <v>       0.01273884      -0.02447878      -0.03988627 </v>
   <v>       0.01273884      -0.02447878       0.03988627 </v>
   <v>      -0.01273884       0.02447878       0.03988627 </v>
  </varray>
  <varray name="stress" >
   <v>      -1.69461483       0.00000000      -0.00000000 </v>
   <v>       0.00000000       0.03415714       0.00000000 </v>
   <v>      -0.00000000       0.00000000      -0.44641217 </v>
  </varray>
  <energy>
   <i name="e_fr_energy">   -160.01635130 </i>
   <i name="e_wo_entrp">   -160.01635130 </i>
   <i name="e_0_energy">   -160.01635130 </i>
  </energy>
  <time name="totalsc">   32.48   32.48</time>
 </calculation>
 <calculation>
  <scstep>
   <time name="dav">    5.57    5.57</time>
   <time name="total">    7.45    7.45</time>
   <energy>
    <i name="alphaZ">    633.07799395 </i>
    <i name="ewald">  -7794.16111832 </i>
    <i name="hartreedc">  -2086.32627469 </i>
    <i name="XCdc">    370.35993015 </i>
    <i name="pawpsdc">  10617.40045052 </i>
    <i name="pawaedc"> -10477.98714903 </i>
    <i name="eentropy">     -0.00000000 </i>
    <i name="bandstr">  -1014.20131879 </i>
    <i name="atom">   9591.82113463 </i>
    <i name="e_fr_energy">   -160.01635158 </i>
    <i name="e_wo_entrp">   -160.01635158 </i>
    <i name="e_0_energy">   -160.01635158 </i>
   </energy>
  </scstep>
  <scstep>
   <time name="dav">    5.56    5.56</time>
   <time name="total">    6.98    6.98</time>
   <energy>
    <i name="alphaZ">    633.07799395 </i>
    <i name="ewald">  -7794.16111832 </i>
    <i name="hartreedc">  -2086.32545037 </i>
    <i name="XCdc">    370.35984742 </i>
    <i name="pawpsdc">  10617.47697629 </i>
    <i name="pawaedc"> -10478.06232867 </i>
    <i name="eentropy">     -0.00000000 </i>
    <i name="bandstr">  -1014.20340704 </i>
    <i name="atom">   9591.82113463 </i>
    <i name="e_fr_energy">   -160.01635210 </i>
    <i name="e_wo_entrp">   -160.01635210 </i>
    <i name="e_0_energy">   -160.01635210 </i>
   </energy>
  </scstep>
  <structure>
   <crystal>
    <varray name="basis" >
     <v>       5.41895842      -0.00000000       0.00000000 </v>
     <v>      -0.00000000       5.51088378       0.00000000 </v>
     <v>       0.00000000       0.00000000       7.70562497 </v>
    </varray>
    <i name="volume">    230.11500538 </i>
    <varray name="rec_basis" >
     <v>       0.18453731       0.00000000      -0.00000000 </v>
     <v>       0.00000000       0.18145910      -0.00000000 </v>
     <v>      -0.00000000      -0.00000000       0.12977533 </v>
    </varray>
   </crystal>
   <varray name="positions" >
    <v>       0.50901474       0.54237333       0.75000000 </v>
    <v>       0.49098526       0.45762667       0.25000000 </v>
    <v>       0.99098526       0.04237333       0.75000000 </v>
    <v>       0.00901474       0.95762667       0.25000000 </v>
    <v>      -0.00000000       0.50000000       0.50000000 </v>
    <v>       0.00000000       0.50000000      -0.00000000 </v>
    <v>       0.50000000      -0.00000000       0.50000000 </v>
    <v>       0.50000000       0.00000000      -0.00000000 </v>
    <v>       0.07730748       0.48123120       0.75000000 </v>
    <v>       0.92269252       0.51876880       0.25000000 </v>
    <v>       0.42269252       0.98123120       0.75000000 </v>
    <v>       0.57730748       0.01876880       0.25000000 </v>
    <v>       0.79059016       0.78987830       0.95954599 </v>
    <v>       0.20940984       0.21012170       0.45954599 </v>
    <v>       0.20940984       0.21012170       0.04045401 </v>
    <v>       0.79059016       0.78987830       0.54045401 </v>
    <v>       0.70940984       0.28987830       0.95954599 </v>
    <v>       0.29059016       0.71012170       0.45954599 </v>
    <v>       0.29059016       0.71012170       0.04045401 </v>
    <v>       0.70940984       0.28987830       0.54045401 </v>
   </varray>
  </structure>
  <varray name="forces" >
   <v>      -0.00687564       0.01523470       0.00000000 </v>
   <v>       0.00687564      -0.01523470      -0.00000000 </v>
   <v>       0.00687564       0.01523470       0.00000000 </v>
   <v>      -0.00687564      -0.01523470      -0.00000000 </v>
   <v>      -0.00000000       0.00000000      -0.00000000 </v>
[...]
    <varray name="rec_basis" >
     <v>       0.18453732       0.00000000      -0.00000000 </v>
     <v>       0.00000000       0.18145911      -0.00000000 </v>
     <v>      -0.00000000      -0.00000000       0.12977534 </v>
    </varray>
   </crystal>
   <varray name="positions" >
    <v>       0.50901474       0.54237333       0.75000000 </v>
    <v>       0.49098526       0.45762667       0.25000000 </v>
    <v>       0.99098526       0.04237333       0.75000000 </v>
    <v>       0.00901474       0.95762667       0.25000000 </v>
    <v>      -0.00000000       0.50000000       0.50000000 </v>
    <v>       0.00000000       0.50000000      -0.00000000 </v>
    <v>       0.50000000      -0.00000000       0.50000000 </v>
    <v>       0.50000000       0.00000000      -0.00000000 </v>
    <v>       0.07730747       0.48123120       0.75000000 </v>
    <v>       0.92269253       0.51876880       0.25000000 </v>
    <v>       0.42269253       0.98123120       0.75000000 </v>
    <v>       0.57730747       0.01876880       0.25000000 </v>
    <v>       0.79059016       0.78987830       0.95954599 </v>
    <v>       0.20940984       0.21012170       0.45954599 </v>
    <v>       0.20940984       0.21012170       0.04045401 </v>
    <v>       0.79059016       0.78987830       0.54045401 </v>
    <v>       0.70940984       0.28987830       0.95954599 </v>
    <v>       0.29059016       0.71012170       0.45954599 </v>
    <v>       0.29059016       0.71012170       0.04045401 </v>
    <v>       0.70940984       0.28987830       0.54045401 </v>
   </varray>
  </structure>
  <varray name="forces" >
   <v>      -0.00686565       0.01523611       0.00000000 </v>
   <v>       0.00686565      -0.01523611      -0.00000000 </v>
   <v>       0.00686565       0.01523611       0.00000000 </v>
   <v>      -0.00686565      -0.01523611      -0.00000000 </v>
   <v>       0.00000000      -0.00000000       0.00000000 </v>
   <v>       0.00000000      -0.00000000      -0.00000000 </v>
   <v>       0.00000000      -0.00000000      -0.00000000 </v>
   <v>       0.00000000      -0.00000000       0.00000000 </v>
   <v>       0.03904277      -0.03623514       0.00000000 </v>
   <v>      -0.03904277       0.03623514      -0.00000000 </v>
   <v>      -0.03904277      -0.03623514      -0.00000000 </v>
   <v>       0.03904277       0.03623514       0.00000000 </v>
   <v>       0.01278427       0.02453062      -0.03997546 </v>
   <v>      -0.01278427      -0.02453062      -0.03997546 </v>
   <v>      -0.01278427      -0.02453062       0.03997546 </v>
   <v>       0.01278427       0.02453062       0.03997546 </v>
   <v>      -0.01278427       0.02453062      -0.03997546 </v>
   <v>       0.01278427      -0.02453062      -0.03997546 </v>
   <v>       0.01278427      -0.02453062       0.03997546 </v>
   <v>      -0.01278427       0.02453062       0.03997546 </v>
  </varray>
  <varray name="stress" >
   <v>      -1.65475063      -0.00000000      -0.00000000 </v>
   <v>      -0.00000000       0.07640317       0.00000000 </v>
   <v>      -0.00000000       0.00000000      -0.40306416 </v>
  </varray>
  <energy>
   <i name="e_fr_energy">   -160.01635338 </i>
   <i name="e_wo_entrp">   -160.01635338 </i>
   <i name="e_0_energy">   -160.01635338 </i>
  </energy>
  <time name="totalsc">   32.46   32.47</time>
 </calculation>
 <calculation>
  <scstep>
   <time name="dav">    5.58    5.58</time>
   <time name="total">    7.46    7.46</time>
   <energy>
    <i name="alphaZ">    633.07815494 </i>
    <i name="ewald">  -7794.16178122 </i>
    <i name="hartreedc">  -2086.33375750 </i>
    <i name="XCdc">    370.36029950 </i>
    <i name="pawpsdc">  10617.64796053 </i>
    <i name="pawaedc"> -10478.22527219 </i>
    <i name="eentropy">     -0.00000000 </i>
    <i name="bandstr">  -1014.20309209 </i>
    <i name="atom">   9591.82113463 </i>
    <i name="e_fr_energy">   -160.01635341 </i>
    <i name="e_wo_entrp">   -160.01635341 </i>
    <i name="e_0_energy">   -160.01635341 </i>
   </energy>
  </scstep>
  <scstep>
   <time name="dav">    5.56    5.56</time>
   <time name="total">    6.98    6.98</time>
   <energy>
    <i name="alphaZ">    633.07815494 </i>
    <i name="ewald">  -7794.16178122 </i>
    <i name="hartreedc">  -2086.33426350 </i>
    <i name="XCdc">    370.36032249 </i>
    <i name="pawpsdc">  10617.64933752 </i>
    <i name="pawaedc"> -10478.22622344 </i>
    <i name="eentropy">     -0.00000000 </i>
    <i name="bandstr">  -1014.20303487 </i>
    <i name="atom">   9591.82113463 </i>
    <i name="e_fr_energy">   -160.01635344 </i>
    <i name="e_wo_entrp">   -160.01635344 </i>
    <i name="e_0_energy">   -160.01635344 </i>
   </energy>
  </scstep>
  <structure>
   <crystal>
    <varray name="basis" >
     <v>       5.41895797      -0.00000000       0.00000000 </v>
     <v>      -0.00000000       5.51088331       0.00000000 </v>
     <v>       0.00000000       0.00000000       7.70562430 </v>
    </varray>
    <i name="volume">    230.11494686 </i>
    <varray name="rec_basis" >
     <v>       0.18453732       0.00000000      -0.00000000 </v>
     <v>       0.00000000       0.18145911      -0.00000000 </v>
     <v>      -0.00000000      -0.00000000       0.12977534 </v>
    </varray>
   </crystal>
   <varray name="positions" >
    <v>       0.50901474       0.54237333       0.75000000 </v>
    <v>       0.49098526       0.45762667       0.25000000 </v>
    <v>       0.99098526       0.04237333       0.75000000 </v>
    <v>       0.00901474       0.95762667       0.25000000 </v>
    <v>      -0.00000000       0.50000000       0.50000000 </v>
    <v>       0.00000000       0.50000000      -0.00000000 </v>
    <v>       0.50000000      -0.00000000       0.50000000 </v>
    <v>       0.50000000       0.00000000      -0.00000000 </v>
    <v>       0.07730747       0.48123120       0.75000000 </v>
    <v>       0.92269253       0.51876880       0.25000000 </v>
    <v>       0.42269253       0.98123120       0.75000000 </v>
    <v>       0.57730747       0.01876880       0.25000000 </v>
    <v>       0.79059016       0.78987830       0.95954599 </v>
    <v>       0.20940984       0.21012170       0.45954599 </v>
    <v>       0.20940984       0.21012170       0.04045401 </v>
    <v>       0.79059016       0.78987830       0.54045401 </v>
    <v>       0.70940984       0.28987830       0.95954599 </v>
    <v>       0.29059016       0.71012170       0.45954599 </v>
    <v>       0.29059016       0.71012170       0.04045401 </v>
    <v>       0.70940984       0.28987830       0.54045401 </v>
   </varray>
  </structure>
  <varray name="forces" >
   <v>      -0.00686478       0.01523709       0.00000000 </v>
   <v>       0.00686478      -0.01523709      -0.00000000 </v>
   <v>       0.00686478       0.01523709       0.00000000 </v>
   <v>      -0.00686478      -0.01523709      -0.00000000 </v>
   <v>       0.00000000      -0.00000000      -0.00000000 </v>
   <v>       0.00000000      -0.00000000       0.00000000 </v>
   <v>       0.00000000      -0.00000000      -0.00000000 </v>
   <v>       0.00000000      -0.00000000       0.00000000 </v>
   <v>       0.03904769      -0.03623691       0.00000000 </v>
   <v>      -0.03904769       0.03623691      -0.00000000 </v>
   <v>      -0.03904769      -0.03623691      -0.00000000 </v>
   <v>       0.03904769       0.03623691       0.00000000 </v>
   <v>       0.01278599       0.02453217      -0.03997873 </v>
   <v>      -0.01278599      -0.02453217      -0.03997873 </v>
   <v>      -0.01278599      -0.02453217       0.03997873 </v>
   <v>       0.01278599       0.02453217       0.03997873 </v>
   <v>      -0.01278599       0.02453217      -0.03997873 </v>
   <v>       0.01278599      -0.02453217      -0.03997873 </v>
   <v>       0.01278599      -0.02453217       0.03997873 </v>
   <v>      -0.01278599       0.02453217       0.03997873 </v>
  </varray>
  <varray name="stress" >
   <v>      -1.65323455      -0.00000000      -0.00000000 </v>
   <v>      -0.00000000       0.07800842       0.00000000 </v>
   <v>      -0.00000000       0.00000000      -0.40150321 </v>
  </varray>
  <energy>
   <i name="e_fr_energy">   -160.01635344 </i>
   <i name="e_wo_entrp">   -160.01635344 </i>
   <i name="e_0_energy">   -160.01635344 </i>
  </energy>
  <time name="totalsc">   32.46   32.46</time>
 </calculation>
 <calculation>
  <scstep>
   <time name="dav">    5.55    5.55</time>
   <time name="total">    7.44    7.44</time>
   <energy>
    <i name="alphaZ">    633.07815599 </i>
    <i name="ewald">  -7794.16178554 </i>
    <i name="hartreedc">  -2086.33462398 </i>
    <i name="XCdc">    370.36034294 </i>
    <i name="pawpsdc">  10617.65265806 </i>
    <i name="pawaedc"> -10478.22925835 </i>
    <i name="eentropy">     -0.00000000 </i>
    <i name="bandstr">  -1014.20297720 </i>
    <i name="atom">   9591.82113463 </i>
    <i name="e_fr_energy">   -160.01635347 </i>
    <i name="e_wo_entrp">   -160.01635347 </i>
    <i name="e_0_energy">   -160.01635347 </i>
   </energy>
  </scstep>
  <scstep>
   <time name="dav">    5.56    5.56</time>
   <time name="total">    6.99    6.99</time>
   <energy>
    <i name="alphaZ">    633.07815599 </i>
    <i name="ewald">  -7794.16178554 </i>
    <i name="hartreedc">  -2086.33495670 </i>
    <i name="XCdc">    370.36035753 </i>
    <i name="pawpsdc">  10617.65315517 </i>
    <i name="pawaedc"> -10478.22947042 </i>
    <i name="eentropy">     -0.00000000 </i>
    <i name="bandstr">  -1014.20294414 </i>
    <i name="atom">   9591.82113463 </i>
    <i name="e_fr_energy">   -160.01635349 </i>
    <i name="e_wo_entrp">   -160.01635349 </i>
    <i name="e_0_energy">   -160.01635349 </i>
   </energy>
  </scstep>
  <structure>
   <crystal>
    <varray name="basis" >
     <v>       5.41895797      -0.00000000       0.00000000 </v>
     <v>      -0.00000000       5.51088331       0.00000000 </v>
     <v>       0.00000000       0.00000000       7.70562430 </v>
    </varray>
    <i name="volume">    230.11494648 </i>
    <varray name="rec_basis" >
     <v>       0.18453732       0.00000000      -0.00000000 </v>
     <v>       0.00000000       0.18145911      -0.00000000 </v>
     <v>      -0.00000000      -0.00000000       0.12977534 </v>
    </varray>
   </crystal>
   <varray name="positions" >
    <v>       0.50901474       0.54237333       0.75000000 </v>
    <v>       0.49098526       0.45762667       0.25000000 </v>
    <v>       0.99098526       0.04237333       0.75000000 </v>
    <v>       0.00901474       0.95762667       0.25000000 </v>
    <v>      -0.00000000       0.50000000       0.50000000 </v>
    <v>       0.00000000       0.50000000      -0.00000000 </v>
    <v>       0.50000000      -0.00000000       0.50000000 </v>
    <v>       0.50000000       0.00000000      -0.00000000 </v>
    <v>       0.07730747       0.48123120       0.75000000 </v>
    <v>       0.92269253       0.51876880       0.25000000 </v>
    <v>       0.42269253       0.98123120       0.75000000 </v>
    <v>       0.57730747       0.01876880       0.25000000 </v>
    <v>       0.79059016       0.78987830       0.95954599 </v>
    <v>       0.20940984       0.21012170       0.45954599 </v>
    <v>       0.20940984       0.21012170       0.04045401 </v>
    <v>       0.79059016       0.78987830       0.54045401 </v>
    <v>       0.70940984       0.28987830       0.95954599 </v>
    <v>       0.29059016       0.71012170       0.45954599 </v>
    <v>       0.29059016       0.71012170       0.04045401 </v>
    <v>       0.70940984       0.28987830       0.54045401 </v>
   </varray>
  </structure>
  <varray name="forces" >
   <v>      -0.00686410       0.01523777       0.00000000 </v>
   <v>       0.00686410      -0.01523777      -0.00000000 </v>
   <v>       0.00686410       0.01523777       0.00000000 </v>
   <v>      -0.00686410      -0.01523777      -0.00000000 </v>
   <v>       0.00000000      -0.00000000      -0.00000000 </v>
   <v>       0.00000000      -0.00000000       0.00000000 </v>
   <v>       0.00000000      -0.00000000       0.00000000 </v>
   <v>       0.00000000      -0.00000000      -0.00000000 </v>
   <v>       0.03905090      -0.03623814       0.00000000 </v>
   <v>      -0.03905090       0.03623814      -0.00000000 </v>
   <v>      -0.03905090      -0.03623814      -0.00000000 </v>
   <v>       0.03905090       0.03623814       0.00000000 </v>
   <v>       0.01278711       0.02453323      -0.03998091 </v>
   <v>      -0.01278711      -0.02453323      -0.03998091 </v>
   <v>      -0.01278711      -0.02453323       0.03998091 </v>
   <v>       0.01278711       0.02453323       0.03998091 </v>
   <v>      -0.01278711       0.02453323      -0.03998091 </v>
   <v>       0.01278711      -0.02453323      -0.03998091 </v>
   <v>       0.01278711      -0.02453323       0.03998091 </v>
   <v>      -0.01278711       0.02453323       0.03998091 </v>
  </varray>
  <varray name="stress" >
   <v>      -1.65201505      -0.00000000      -0.00000000 </v>
   <v>      -0.00000000       0.07928926       0.00000000 </v>
   <v>      -0.00000000       0.00000000      -0.40026632 </v>
  </varray>
  <energy>
   <i name="e_fr_energy">   -160.01635349 </i>
   <i name="e_wo_entrp">   -160.01635349 </i>
   <i name="e_0_energy">   -160.01635349 </i>
  </energy>
  <time name="totalsc">   32.45   32.45</time>
 </calculation>
 <calculation>
  <scstep>
   <time name="dav">    8.89    8.89</time>
   <time name="total">   10.79   10.79</time>
   <energy>
    <i name="alphaZ">    650.07102411 </i>
    <i name="ewald">  -7863.51287396 </i>
    <i name="hartreedc">  -2104.51904205 </i>
    <i name="XCdc">    374.80256241 </i>
    <i name="pawpsdc">  10617.65528824 </i>
    <i name="pawaedc"> -10478.23141237 </i>
    <i name="eentropy">     -0.00000000 </i>
    <i name="bandstr">   -948.58537939 </i>
    <i name="atom">   9591.82113463 </i>
    <i name="e_fr_energy">   -160.49869838 </i>
    <i name="e_wo_entrp">   -160.49869838 </i>
    <i name="e_0_energy">   -160.49869838 </i>
   </energy>
  </scstep>
  <scstep>
   <time name="dav">   11.68   11.68</time>
   <time name="total">   13.57   13.57</time>
   <energy>
    <i name="e_fr_energy">   -160.12313585 </i>
    <i name="e_wo_entrp">   -160.12313585 </i>
    <i name="e_0_energy">   -160.12313585 </i>
   </energy>
  </scstep>
  <scstep>
   <time name="dav">   11.08   11.08</time>
   <time name="total">   12.98   12.98</time>
   <energy>
    <i name="e_fr_energy">   -159.94381035 </i>
    <i name="e_wo_entrp">   -159.94381035 </i>
    <i name="e_0_energy">   -159.94381035 </i>
   </energy>
  </scstep>
  <scstep>
   <time name="dav">   12.47   12.47</time>
   <time name="total">   14.37   14.37</time>
   <energy>
    <i name="e_fr_energy">   -159.91603445 </i>
    <i name="e_wo_entrp">   -159.91603445 </i>
    <i name="e_0_energy">   -159.91603445 </i>
   </energy>
  </scstep>
  <scstep>
   <time name="dav">   13.12   13.12</time>
   <time name="total">   15.01   15.01</time>
   <energy>
    <i name="e_fr_energy">   -159.91655806 </i>
    <i name="e_wo_entrp">   -159.91655806 </i>
    <i name="e_0_energy">   -159.91655806 </i>
   </energy>
  </scstep>
  <scstep>
   <time name="dav">   13.40   13.40</time>
   <time name="total">   15.29   15.30</time>
   <energy>
    <i name="e_fr_energy">   -159.91760319 </i>
    <i name="e_wo_entrp">   -159.91760319 </i>
    <i name="e_0_energy">   -159.91760319 </i>
   </energy>
  </scstep>
  <scstep>
   <time name="dav">    9.18    9.18</time>
   <time name="total">   11.08   11.08</time>
   <energy>
    <i name="e_fr_energy">   -159.91780388 </i>
    <i name="e_wo_entrp">   -159.91780388 </i>
    <i name="e_0_energy">   -159.91780388 </i>
   </energy>
  </scstep>
  <scstep>
   <time name="dav">    5.94    5.94</time>
   <time name="total">    7.37    7.37</time>
   <energy>
    <i name="alphaZ">    650.07102411 </i>
    <i name="ewald">  -7863.51287396 </i>
    <i name="hartreedc">  -2056.60344127 </i>
    <i name="XCdc">    371.58151812 </i>
    <i name="pawpsdc">  10909.59710506 </i>
    <i name="pawaedc"> -10770.41957598 </i>
    <i name="eentropy">     -0.00000000 </i>
    <i name="bandstr">   -992.45272487 </i>
    <i name="atom">   9591.82113463 </i>
    <i name="e_fr_energy">   -159.91783416 </i>
    <i name="e_wo_entrp">   -159.91783416 </i>
    <i name="e_0_energy">   -159.91783416 </i>
   </energy>
  </scstep>
  <structure>
   <crystal>
    <varray name="basis" >
     <v>       5.37204886       0.00000000       0.00000000 </v>
     <v>      -0.00000000       5.46279649       0.00000000 </v>
     <v>       0.00000000       0.00000000       7.63635962 </v>
    </varray>
    <i name="volume">    224.09973769 </i>
    <varray name="rec_basis" >
     <v>       0.18614872       0.00000000       0.00000000 </v>
     <v>       0.00000000       0.18305643       0.00000000 </v>
     <v>      -0.00000000      -0.00000000       0.13095245 </v>
    </varray>
   </crystal>
   <varray name="positions" >
    <v>       0.50906557       0.54239692       0.75000000 </v>
    <v>       0.49093443       0.45760308       0.25000000 </v>
    <v>       0.99093443       0.04239692       0.75000000 </v>
    <v>       0.00906557       0.95760308       0.25000000 </v>
    <v>      -0.00000000       0.50000000       0.50000000 </v>
    <v>       0.00000000       0.50000000      -0.00000000 </v>
    <v>       0.50000000      -0.00000000       0.50000000 </v>
    <v>       0.50000000       0.00000000      -0.00000000 </v>
    <v>       0.07679464       0.48132512       0.75000000 </v>
    <v>       0.92320536       0.51867488       0.25000000 </v>
    <v>       0.42320536       0.98132512       0.75000000 </v>
    <v>       0.57679464       0.01867488       0.25000000 </v>
    <v>       0.79030134       0.78962063       0.95983340 </v>
    <v>       0.20969866       0.21037937       0.45983340 </v>
    <v>       0.20969866       0.21037937       0.04016660 </v>
    <v>       0.79030134       0.78962063       0.54016660 </v>
    <v>       0.70969866       0.28962063       0.95983340 </v>
    <v>       0.29030134       0.71037937       0.45983340 </v>
    <v>       0.29030134       0.71037937       0.04016660 </v>
    <v>       0.70969866       0.28962063       0.54016660 </v>
   </varray>
  </structure>
  <varray name="forces" >
   <v>      -0.01185902      -0.00693615      -0.00000000 </v>
   <v>       0.01185902       0.00693615       0.00000000 </v>
   <v>       0.01185902      -0.00693615       0.00000000 </v>
   <v>      -0.01185902       0.00693615      -0.00000000 </v>
   <v>       0.00000000      -0.00000000      -0.00000000 </v>
   <v>       0.00000000       0.00000000       0.00000000 </v>
   <v>       0.00000000      -0.00000000       0.00000000 </v>
   <v>       0.00000000      -0.00000000      -0.00000000 </v>
   <v>       0.11547458      -0.02135444       0.00000000 </v>
   <v>      -0.11547458       0.02135444      -0.00000000 </v>
   <v>      -0.11547458      -0.02135444      -0.00000000 </v>
   <v>       0.11547458       0.02135444       0.00000000 </v>
   <v>       0.06502695       0.05883422      -0.09169534 </v>
   <v>      -0.06502695      -0.05883422      -0.09169534 </v>
   <v>      -0.06502695      -0.05883422       0.09169534 </v>
   <v>       0.06502695       0.05883422       0.09169534 </v>
   <v>      -0.06502695       0.05883422      -0.09169534 </v>
   <v>       0.06502695      -0.05883422      -0.09169534 </v>
   <v>       0.06502695      -0.05883422       0.09169534 </v>
   <v>      -0.06502695       0.05883422       0.09169534 </v>
  </varray>
  <varray name="stress" >
   <v>      51.89445008      -0.00000000       0.00000000 </v>
   <v>      -0.00000000      52.29856566       0.00000000 </v>
   <v>       0.00000000       0.00000000      53.92357744 </v>
  </varray>
  <energy>
   <i name="e_fr_energy">   -159.91783416 </i>
   <i name="e_wo_entrp">   -159.91783416 </i>
   <i name="e_0_energy">   -159.91783416 </i>
  </energy>